          *******************************************************
          *                                                     *
          *          GAMESS VERSION = 30 SEP 2022 (R2)          *
          *                                                     *
          *              doi.org/10.1063/5.0005188              *
          *                                                     *
          *************** 64 BIT WINDOWS VERSION ****************

  GAMESS HAS BEEN MADE POSSIBLE WITH IMPORTANT CONTRIBUTIONS FROM
  THE FOLLOWING INDIVIDUALS (IN ALPHABETICAL ORDER):

     IVANA ADAMOVIC, CHRISTINE AIKENS, TOMOKO AKAMA,
     MELISA ALKAN, YURI ALEXEEV, YURIKO AOKI, POOJA ARORA,
     TOSHIO ASADA, ANDREY ASADCHEV, KIM K. BALDRIDGE,
     PRADIPTA BANDYOPADHYAY, TAYLOR A. BARNES, MARIA BARYSZ,
     ROB BELL, JONATHAN BENTZ, COLLEEN BERTONI,
     JERRY A. BOATZ, BRETT BODE, KURT BRORSEN, KURT R. BRORSEN,
     LAIMUTIS BYTAUTAS, CALEB CARLIN, LAURA CARRINGTON,
     GALINA CHABAN, BENOIT CHAMPAGNE, WEI CHEN, MAHITO CHIBA,
     DAN CHIPMAN, CHEOL HO CHOI, TANNER CULPITT,
     DIPAYAN DATTA, PAUL DAY, ALBERT DEFUSCO,
     NUWAN DESILVA, J. EMILIANO DEUSTUA,
     TIM DUDLEY, MICHEL DUPUIS, STEVEN T. ELBERT,
     DMITRI FEDOROV, KATHERINE FERRERAS, MICHAEL FILATOV,
     ALEX FINDLATER,GRAHAM FLETCHER, MARK FREITAG,
     CHRISTIAN FRIEDL, DAVID GARMER, 
     IGOR S. GERASIMOV, KURT GLAESEMANN,
     MARK S. GORDON, JEFFREY GOUR, FENG LONG GU,
     EMILIE B. GUIDEZ, ANASTASIA GUNINA, SHARON HAMMES-SCHIFFER,
     MASATAKE HARUTA, KIMIHIKO HIRAO, YASUHIRO IKABATA,
     TZVETELIN IORDANOV, STEPHAN IRLE, KAZUYA ISHIMURA,
     JOE IVANIC, FRANK JENSEN, JAN H. JENSEN, VISVALDAS KAIRYS,
     MUNEAKI KAMIYA, MICHIO KATOUDA, NAOAKI KAWAKAMI, DAN KEMP,
     BERNARD KIRTMAN, KAZUO KITAURA, MARIUSZ KLOBUKOWSKI,
     MASATO KOBAYASHI, KONSTANTIN KOMAROV, PRAKASHAN KORAMBATH,
     JACEK KORCHOWIEC, SHIRO KOSEKI, KAROL KOWALSKI,
     JIMMY KROMANN, STANISLAW KUCHARSKI, HENRY KURTZ,
     SAROM SOK LEANG, SEUNGHOON LEE, HUI LI, SHUHUA LI, WEI LI,
     JESSE LUTZ, ALEKSANDR O. LYKHIN, MARCIN MAKOWSKI,
     JOANI MATO, NIKITA MATSUNAGA, BENEDETTA MENNUCCI,
     GRANT MERRILL, NORIYUKI MINEZAWA, VLADIMIR MIRONOV,
     EISAKU MIYOSHI, JOHN A. MONTGOMERY JR., HIROTOSHI MORI,
     JONATHAN MULLIN, MONIKA MUSIAL, SHIGERU NAGASE,
     TAKESHI NAGATA, HIROMI NAKAI, TAKAHITO NAKAJIMA,
     YUYA NAKAJIMA, HARUYUKI NAKANO, HIROYA NAKATA, SEAN NEDD,
     HEATHER NETZLOFF, KIET A. NGUYEN, YOSHIO NISHIMOTO,
     BOSILJKA NJEGIC, RYAN OLSON, MIKE PAK, ROBERTO PEVERATI,
     BUU PHAM, PIOTR PIECUCH, ANNA POMOGAEVA, DAVID POOLE,
     SPENCER PRUITT, OLIVIER QUINET, LUKE ROSKOP,
     KLAUS RUEDENBERG, ANDREW SAND, TOSAPORN SATTASATHUCHANA,
     NOZOMI SAWADA, MICHAEL W. SCHMIDT, PATRICK E. SCHNEIDER,
     JUNJI SEINO, PRACHI SHARMA, JUN SHEN, JIM SHOEMAKER,
     YINAN SHU, DEJUN SI, JONATHAN SKONE, LYUDMILA SLIPCHENKO,
     TONY SMITH, JIE SONG, MARK SPACKMAN, CASPER STEINMANN,
     WALT STEVENS, PEIFENG SU, SHUJUN SU, CHET SWALINA,
     CHINAMI TAKASHIMA, TETSUYA TAKETSUGU, ZHEN TAO,
     NANDUN THELLAMUREGE, SEIKEN TOKURA, JACOPO TOMASI,
     TSUGUKI TOUMA, TAKAO TSUNEDA, HIROAKI UMEDA,
     JORGE LUIS GALVEZ VALLEJO, YALI WANG, SIMON WEBB,
     AARON WEST, THERESA L. WINDUS, MARTA WLOCH,
     PENG XU, KIYOSHI YAGI, SUSUMU YANAGISAWA, YANG YANG,
     SOOHAENG YOO, TAKESHI YOSHIKAWA, FEDERICO ZAHARIEV,
     TOBY ZENG

  WHO ARE SUPPORTED BY THEIR INSTITUTION/UNIVERSITY/COMPANY/GROUP
  (IN ALPHABETICAL ORDER):

     EP ANALYTICS,
     FACULTES UNIVERSITAIRES NOTRE-DAME DE LA PAIX,
     INSTITUTE FOR MOLECULAR SCIENCE, IOWA STATE UNIVERSITY,
     JACKSON STATE UNIVERSITY, JOHANNES KEPLER UNIVERSITY LINZ,
     KYUNGPOOK NATIONAL UNIVERSITY
     KYUSHU UNIVERSITY, MICHIGAN STATE UNIVERSITY,
     MIE UNIVERSITY, THE MOLECULAR SCIENCES SOFTWARE INSTITUTE,
     MOSCOW STATE UNIVERSITY,
     N. COPERNICUS UNIVERSITY, NAGOYA UNIVERSITY,
     NANJING UNIVERSITY, NAT. INST. OF ADVANCED INDUSTRIAL
     SCIENCE AND TECHNOLOGY, NATIONAL INST. OF STANDARDS AND
     TECHNOLOGY, NESMEYANOV INSTITUTE OF ORGANOELEMENT COMPOUNDS
     OF RUSSIAN ACADEMY OF SCIENCES, OSAKA PREFECTURE UNIVERSITY,
     PENNSYLVANIA STATE UNIVERSITY, TOKYO INSTITUTE OF TECHNOLOGY,
     UNIVERSITY OF AARHUS, UNIVERSITY OF ALBERTA,
     UNIVERSITY OF CALIFORNIA AT SANTA BARBARA,
     UNIVERSITY OF COPENHAGEN, UNIVERSITY OF IOWA,
     UNIVERSITY OF MEMPHIS, UNIVERSITY OF MINNESOTA,
     UNIVERSITY OF NEBRASKA, UNIVERSITY OF NEW ENGLAND,
     UNIVERSITY OF NOTRE DAME, UNIVERSITY OF PISA,
     UNIVERSITY OF SILESIA, UNIVERSITY OF TOKYO,
     UNIVERSITY OF ZURICH, WASEDA UNIVERSITY,
     YALE UNIVERSITY

  GAMESS SOFTWARE MANAGEMENT TEAM FOR THIS RELEASE:
     MARK S. GORDON (TEAM LEAD),
     BRETT BODE (SENIOR ADVISOR),
     GIUSEPPE BARCA,
     COLLEEN BERTONI,
     KRISTOPHER KEIPERT (ADVISOR),
     SAROM S. LEANG (DEVELOPMENT LEAD),
     BUU PHAM,
     JACKSON HAYES (WEBSITE ADMINISTRATOR),
     PENG XU


 PARALLEL VERSION RUNNING ON        2 PROCESSORS IN        2 NODES.

 EXECUTION OF GAMESS BEGUN 21:02:00 22-MAY-2023    

            ECHO OF THE FIRST FEW INPUT CARDS -
 INPUT CARD>! (Energy/Geometry) PM3                                                         
 INPUT CARD> $CONTRL                                                                        
 INPUT CARD>COORD=UNIQUE                                                                    
 INPUT CARD>ICHARG=0                                                                        
 INPUT CARD>MAXIT=200                                                                       
 INPUT CARD>MULT=1                                                                          
 INPUT CARD>RUNTYP=OPTIMIZE                                                                 
 INPUT CARD>SCFTYP=RHF                                                                      
 INPUT CARD>UNITS=ANGS                                                                      
 INPUT CARD>! DFTTYP=PBE                                                                    
 INPUT CARD> $END                                                                           
 INPUT CARD> $DFT                                                                           
 INPUT CARD>METHOD=GRID                                                                     
 INPUT CARD> $END                                                                           
 INPUT CARD> $BASIS                                                                         
 INPUT CARD>! EXTFIL=.T.                                                                    
 INPUT CARD>! GBASIS=GEGSSBAS                                                               
 INPUT CARD>! NGAUSS=6                                                                      
 INPUT CARD>GBASIS=PM3                                                                      
 INPUT CARD>! NDFUNC=1                                                                      
 INPUT CARD>! NPFUNC=1                                                                      
 INPUT CARD> $END                                                                           
 INPUT CARD> $SCF                                                                           
 INPUT CARD>DAMP=.F.                                                                        
 INPUT CARD>DEM=.F.                                                                         
 INPUT CARD>DIIS=.F.                                                                        
 INPUT CARD>DIRSCF=.T.                                                                      
 INPUT CARD>EXTRAP=.T.                                                                      
 INPUT CARD>RSTRCT=.F.                                                                      
 INPUT CARD>SHIFT=.F.                                                                       
 INPUT CARD>SOSCF=.T.                                                                       
 INPUT CARD> $END                                                                           
 INPUT CARD> $STATPT                                                                        
 INPUT CARD>METHOD=QA                                                                       
 INPUT CARD>NSTEP=100                                                                       
 INPUT CARD>OPTTOL=0.001                                                                    
 INPUT CARD> $END                                                                           
 INPUT CARD> $GUESS                                                                         
 INPUT CARD>GUESS=HUCKEL                                                                    
 INPUT CARD> $END                                                                           
 INPUT CARD> $SYSTEM                                                                        
 INPUT CARD>MWORDS=10                                                                       
 INPUT CARD> $END                                                                           
 INPUT CARD> $DATA                                                                          
 INPUT CARD>C24 FULLERENE                                                                   
 INPUT CARD>C1                                                                              
 INPUT CARD>C	6.0	1.14300	-2.00480	0.34000                                                  
 INPUT CARD>C	6.0	-0.01940	-2.33110	-0.32930                                                
 INPUT CARD>C	6.0	1.99990	-1.14140	-0.32750                                                 
 INPUT CARD>C	6.0	0.00350	-1.38660	-1.36270                                                 
     10000000 WORDS OF MEMORY AVAILABLE

     BASIS OPTIONS
     -------------
     GBASIS=PM3          IGAUSS=       0      POLAR=NONE    
     NDFUNC=       0     NFFUNC=       0     DIFFSP=       F
     NPFUNC=       0      DIFFS=       F     BASNAM=        


     RUN TITLE
     ---------
 C24 FULLERENE                                                                   

 THE POINT GROUP OF THE MOLECULE IS C1      
 THE ORDER OF THE PRINCIPAL AXIS IS     0

 ATOM      ATOMIC                      COORDINATES (BOHR)
           CHARGE         X                   Y                   Z
 C           6.0     2.1599568040       -3.7885226602        0.6425068358
 C           6.0    -0.0366606842       -4.4051402500       -0.6222867678
 C           6.0     3.7792630028       -2.1569332424       -0.6188852610
 C           6.0     0.0066140410       -2.6202940546       -2.5751296035
 C           6.0     2.2774977604       -1.2876592880       -2.6010188495
 C           6.0     4.3801958669        0.0291017802        0.6517664932
 C           6.0     3.7870108794        2.2215618712       -0.6345699867
 C           6.0     2.2778757056        1.3505871634       -2.6420259034
 C           6.0     2.6407030952       -0.0207869859        2.6380574789
 C           6.0     1.3073124383       -2.2937494039        2.6422148760
 C           6.0    -1.3256427804       -2.3379689920        2.6148138492
 C           6.0     1.3471856566        2.2837338562        2.6053652193
 C           6.0    -1.2880372332        2.2368686517        2.6144359040
 C           6.0    -2.6189712464       -0.0355268486        2.5919481648
 C           6.0     2.1877357760        3.8346319743        0.6459083426
 C           6.0    -3.8081758105       -2.2378135147       -0.6275780005
 C           6.0    -2.2468841994       -3.8637337545        0.6631048491
 C           6.0    -4.3694244288       -0.0018897260        0.6319243703
 C           6.0    -3.7660349209        2.1973733785       -0.6340030689
 C           6.0    -2.1350124209        3.7885226602        0.6453414248
 C           6.0     0.0204090407        4.3975813460       -0.7029780674
 C           6.0    -2.2871353629       -1.3008873699       -2.5862789868
 C           6.0    -2.2795764590        1.3388708623       -2.6476950814
 C           6.0    -0.0081258217        2.6769858342       -2.6964500119

          INTERNUCLEAR DISTANCES (ANGS.)
          ------------------------------

                1 C          2 C          3 C          4 C          5 C     

   1 C       0.0000000    1.3804376 *  1.3875494 *  2.1400511 *  2.1682448 *
   2 C       1.3804376 *  0.0000000    2.3437069 *  1.4001858 *  2.3059865 *
   3 C       1.3875494 *  2.3437069 *  0.0000000    2.2621616 *  1.3940371 *
   4 C       2.1400511 *  1.4001858 *  2.2621616 *  0.0000000    1.3934050 *
   5 C       2.1682448 *  2.3059865 *  1.3940371 *  1.3934050 *  0.0000000  
   6 C       2.3370114 *  3.3798786    1.3752934 *  3.1996795    2.1648338 *
   7 C       3.3634760    4.0485966    2.3170185 *  3.4090164    2.2736268 *
   8 C       3.2280901    3.4524435    2.2852838 *  2.4210077 *  1.3962686 *
   9 C       2.2704832 *  3.2197587    2.1473851 *  3.3831433    2.8587722 *
  10 C       1.3960837 *  2.1767914 *  2.1666582 *  2.8506465 *  2.8714865 *
  11 C       2.2540407 *  2.1438859 *  3.1992101    2.8393764 *  3.4003780  
  12 C       3.4042886    3.9977863    3.1764001    3.8409721    3.3770782  
  13 C       3.8189776    3.9656036    3.9400575    3.8232733    3.8282712  
  14 C       3.3769409    3.1791688    3.9510522    3.3582295    3.8346241  
  15 C       4.0340272    4.5659781    3.3481290    3.9881308    3.2096448  
  16 C       3.3315657    2.3018699 *  4.0153307    2.2755772 *  3.4226228  
  17 C       2.3323651 *  1.3830106 *  3.3830578    2.1889370 *  3.2517800  
  18 C       3.9942024    3.3356852    4.5091940    3.1878680    3.9701239  
  19 C       4.5081991    4.0127395    4.6099733    3.3970860    3.8356734  
  20 C       4.6089602    4.5258137    4.4878901    3.9610933    3.9520977  
  21 C       4.5336716    4.6584936    3.9986237    3.8435800    3.3891714  
  22 C       3.1922161    2.2796602 *  3.4050671    1.4002959 *  2.4155227 *
  23 C       3.9890646    3.4346259    3.8541491    2.4196146 *  2.7834806 *
  24 C       4.0179859    3.9051516    3.4305775    2.8039459 *  2.4221983 *

                6 C          7 C          8 C          9 C         10 C     

   1 C       2.3370114 *  3.3634760    3.2280901    2.2704832 *  1.3960837 *
   2 C       3.3798786    4.0485966    3.4524435    3.2197587    2.1767914 *
   3 C       1.3752934 *  2.3170185 *  2.2852838 *  2.1473851 *  2.1666582 *
   4 C       3.1996795    3.4090164    2.4210077 *  3.3831433    2.8506465 *
   5 C       2.1648338 *  2.2736268 *  1.3962686 *  2.8587722 *  2.8714865 *
   6 C       0.0000000    1.3812855 *  2.1828252 *  1.3974364 *  2.2944661 *
   7 C       1.3812855 *  0.0000000    1.4066528 *  2.1852035 *  3.2307673  
   8 C       2.1828252 *  1.4066528 *  0.0000000    2.8931815 *  3.4354317  
   9 C       1.3974364 *  2.1852035 *  2.8931815 *  0.0000000    1.3944906 *
  10 C       2.2944661 *  3.2307673    3.4354317    1.3944906 *  0.0000000  
  11 C       3.4299983    4.0122331    3.8967413    2.4308638 *  1.3935719 *
  12 C       2.2512785 *  2.1465162 *  2.8630426 *  1.3985778 *  2.4224704 *
  13 C       3.3823978    3.1888094    3.3938221    2.3978543 *  2.7630508 *
  14 C       3.8436203    3.9790989    3.8631718    2.7834179 *  2.3969918 *
  15 C       2.3241050 *  1.3798545 *  2.1811551 *  2.3089413 *  3.4423964  
  16 C       4.5467708    4.6607551    3.8877296    4.0010707    3.2128902  
  17 C       4.0671837    4.5865558    4.0504184    3.4521338    2.3074823 *
  18 C       4.6301410    4.5236200    3.9858867    3.8585265    3.4097757  
  19 C       4.5124791    3.9969205    3.3998581    3.9837210    3.9826571  
  20 C       3.9804974    3.3116477    3.1849215    3.4003176    3.8463265  
  21 C       3.3437424    2.3021965 *  2.2538376 *  3.2427142    4.0168821  
  22 C       3.9849231    3.8565394    2.7937728 *  3.8603087    3.3984131  
  23 C       3.9936060    3.4145384    2.4117098 *  3.8885347    3.8902572  
  24 C       3.2396373    2.2982274 *  1.3988807 *  3.4599955    3.9223398  

               11 C         12 C         13 C         14 C         15 C     

   1 C       2.2540407 *  3.4042886    3.8189776    3.3769409    4.0340272  
   2 C       2.1438859 *  3.9977863    3.9656036    3.1791688    4.5659781  
   3 C       3.1992101    3.1764001    3.9400575    3.9510522    3.3481290  
   4 C       2.8393764 *  3.8409721    3.8232733    3.3582295    3.9881308  
   5 C       3.4003780    3.3770782    3.8282712    3.8346241    3.2096448  
   6 C       3.4299983    2.2512785 *  3.3823978    3.8436203    2.3241050 *
   7 C       4.0122331    2.1465162 *  3.1888094    3.9790989    1.3798545 *
   8 C       3.8967413    2.8630426 *  3.3938221    3.8631718    2.1811551 *
   9 C       2.4308638 *  1.3985778 *  2.3978543 *  2.7834179 *  2.3089413 *
  10 C       1.3935719 *  2.4224704 *  2.7630508 *  2.3969918 *  3.4423964  
  11 C       0.0000000    2.8252435 *  2.4209818 *  1.3975151 *  3.9001986  
  12 C       2.8252435 *  0.0000000    1.3947288 *  2.4313118 *  1.3951907 *
  13 C       2.4209818 *  1.3947288 *  0.0000000    1.3936235 *  2.2766277 *
  14 C       1.3975151 *  2.4313118 *  1.3936235 *  0.0000000    3.4241339  
  15 C       3.9001986    1.3951907 *  2.2766277 *  3.4241339    0.0000000  
  16 C       2.1616166 *  4.0117801    3.2138330    2.1579549 *  4.5658926  
  17 C       1.3986518 *  3.9059258    3.4271910    2.2769418 *  4.7013753  
  18 C       2.2855143 *  3.4212107    2.2722195 *  1.3907309 *  4.0201956  
  19 C       3.2223225    3.2034238    2.1621530 *  2.1630576 *  3.3370143  
  20 C       3.4322275    2.2595178 *  1.4003044 *  2.2850930 *  2.2876301 *
  21 C       4.0365936    2.1929799 *  2.2064817 *  3.2394689    1.3833418 *
  22 C       2.8522297 *  3.8528671    3.3702131    2.8262865 *  3.9897672  
  23 C       3.4344843    3.4147645    2.8731729 *  2.8721223 *  3.2203175  
  24 C       3.9278766    2.9032866 *  2.9002286 *  3.4352284    2.2031392 *

               16 C         17 C         18 C         19 C         20 C     

   1 C       3.3315657    2.3323651 *  3.9942024    4.5081991    4.6089602  
   2 C       2.3018699 *  1.3830106 *  3.3356852    4.0127395    4.5258137  
   3 C       4.0153307    3.3830578    4.5091940    4.6099733    4.4878901  
   4 C       2.2755772 *  2.1889370 *  3.1878680    3.3970860    3.9610933  
   5 C       3.4226228    3.2517800    3.9701239    3.8356734    3.9520977  
   6 C       4.5467708    4.0671837    4.6301410    4.5124791    3.9804974  
   7 C       4.6607551    4.5865558    4.5236200    3.9969205    3.3116477  
   8 C       3.8877296    4.0504184    3.9858867    3.3998581    3.1849215  
   9 C       4.0010707    3.4521338    3.8585265    3.9837210    3.4003176  
  10 C       3.2128902    2.3074823 *  3.4097757    3.9826571    3.8463265  
  11 C       2.1616166 *  1.3986518 *  2.2855143 *  3.2223225    3.4322275  
  12 C       4.0117801    3.9059258    3.4212107    3.2034238    2.2595178 *
  13 C       3.2138330    3.4271910    2.2722195 *  2.1621530 *  1.4003044 *
  14 C       2.1579549 *  2.2769418 *  1.3907309 *  2.1630576 *  2.2850930 *
  15 C       4.5658926    4.7013753    4.0201956    3.3370143    2.2876301 *
  16 C       0.0000000    1.3745485 *  1.3901056 *  2.3471084 *  3.3774830  
  17 C       1.3745485 *  0.0000000    2.3319844 *  3.3771016    4.0498436  
  18 C       1.3901056 *  2.3319844 *  0.0000000    1.3802713 *  2.3283801 *
  19 C       2.3471084 *  3.3771016    1.3802713 *  0.0000000    1.3828357 *
  20 C       3.3774830    4.0498436    2.3283801 *  1.3828357 *  0.0000000  
  21 C       4.0540715    4.5906280    3.3638341    2.3177015 *  1.3834478 *
  22 C       1.4028592 *  2.1900713 *  2.1417076 *  2.2598008 *  3.1912769  
  23 C       2.3193520 *  3.2633362    2.1767787 *  1.4002255 *  2.1732236 *
  24 C       3.4650348    4.0674307    3.2308157    2.2825640 *  2.1771468 *

               21 C         22 C         23 C         24 C     

   1 C       4.5336716    3.1922161    3.9890646    4.0179859  
   2 C       4.6584936    2.2796602 *  3.4346259    3.9051516  
   3 C       3.9986237    3.4050671    3.8541491    3.4305775  
   4 C       3.8435800    1.4002959 *  2.4196146 *  2.8039459 *
   5 C       3.3891714    2.4155227 *  2.7834806 *  2.4221983 *
   6 C       3.3437424    3.9849231    3.9936060    3.2396373  
   7 C       2.3021965 *  3.8565394    3.4145384    2.2982274 *
   8 C       2.2538376 *  2.7937728 *  2.4117098 *  1.3988807 *
   9 C       3.2427142    3.8603087    3.8885347    3.4599955  
  10 C       4.0168821    3.3984131    3.8902572    3.9223398  
  11 C       4.0365936    2.8522297 *  3.4344843    3.9278766  
  12 C       2.1929799 *  3.8528671    3.4147645    2.9032866 *
  13 C       2.2064817 *  3.3702131    2.8731729 *  2.9002286 *
  14 C       3.2394689    2.8262865 *  2.8721223 *  3.4352284  
  15 C       1.3833418 *  3.9897672    3.2203175    2.2031392 *
  16 C       4.0540715    1.4028592 *  2.3193520 *  3.4650348  
  17 C       4.5906280    2.1900713 *  3.2633362    4.0674307  
  18 C       3.3638341    2.1417076 *  2.1767787 *  3.2308157  
  19 C       2.3177015 *  2.2598008 *  1.4002255 *  2.2825640 *
  20 C       1.3834478 *  3.1912769    2.1732236 *  2.1771468 *
  21 C       0.0000000    3.4025780    2.2716173 *  1.3935754 *
  22 C       3.4025780    0.0000000    1.3972837 *  2.4266973 *
  23 C       2.2716173 *  1.3972837 *  0.0000000    1.3953047 *
  24 C       1.3935754 *  2.4266973 *  1.3953047 *  0.0000000  

  * ... LESS THAN  3.000


 TOTAL NUMBER OF BASIS SET SHELLS             =   24
 NUMBER OF CARTESIAN GAUSSIAN BASIS FUNCTIONS =   96
 NUMBER OF ELECTRONS                          =   96
 CHARGE OF MOLECULE                           =    0
 SPIN MULTIPLICITY                            =    1
 NUMBER OF OCCUPIED ORBITALS (ALPHA)          =   48
 NUMBER OF OCCUPIED ORBITALS (BETA )          =   48
 TOTAL NUMBER OF ATOMS                        =   24
 THE NUCLEAR REPULSION ENERGY IS     1993.5211126121

 THE PARAMETERS USED IN THIS CALCULATION ARE DESCRIBED IN:

  C: (PM3): J. J. P. STEWART, J. COMP. CHEM. 10, 209 (1989).                    

 THERE ARE   24 HEAVY AND    0 LIGHT ATOMS,
 YIELDING A TOTAL OF     27600 MOPAC 2E- INTEGRALS.

     $CONTRL OPTIONS
     ---------------
 SCFTYP=RHF          RUNTYP=OPTIMIZE     EXETYP=RUN     
 MPLEVL=       0     CITYP =NONE         CCTYP =NONE         VBTYP =NONE    
 DFTTYP=NONE         TDDFT =NONE    
 MULT  =       1     ICHARG=       0     NZVAR =       0     COORD =UNIQUE  
 PP    =NONE         RELWFN=NONE         LOCAL =NONE         NUMGRD=       F
 ISPHER=      -1     NOSYM =       0     MAXIT =     200     UNITS =ANGS    
 PLTORB=       F     MOLPLT=       F     AIMPAC=       F     FRIEND=        
 NPRINT=       7     IREST =       0     GEOM  =INPUT   
 NORMF =       0     NORMP =       0     ITOL  =      20     ICUT  =       9
 INTTYP=BEST         GRDTYP=BEST         QMTTOL= 1.0E-06

     $SYSTEM OPTIONS
     ---------------
  REPLICATED MEMORY=    10000000 WORDS (ON EVERY NODE).
 DISTRIBUTED MEMDDI=           0 MILLION WORDS IN AGGREGATE,
 MEMDDI DISTRIBUTED OVER   2 PROCESSORS IS           0 WORDS/PROCESSOR.
 TOTAL MEMORY REQUESTED ON EACH PROCESSOR=    10000000 WORDS.
 TIMLIM=      525600.00 MINUTES, OR     365.0 DAYS.
 PARALL= T  BALTYP=  DLB     KDIAG=    0  COREFL= F
 MXSEQ2=     300 MXSEQ3=     150  mem10=         0  mem22=         0

          ----------------
          PROPERTIES INPUT
          ----------------

     MOMENTS            FIELD           POTENTIAL          DENSITY
 IEMOM =       1   IEFLD =       0   IEPOT =       0   IEDEN =       0
 WHERE =COMASS     WHERE =NUCLEI     WHERE =NUCLEI     WHERE =NUCLEI  
 OUTPUT=BOTH       OUTPUT=BOTH       OUTPUT=BOTH       OUTPUT=BOTH    
 IEMINT=       0   IEFINT=       0                     IEDINT=       0
                                                       MORB  =       0
          EXTRAPOLATION IN EFFECT
          SOSCF IN EFFECT
 ORBITAL PRINTING OPTION: NPREO=     1    96     2     1

     -------------------------------
     INTEGRAL TRANSFORMATION OPTIONS
     -------------------------------
     NWORD  =            0
     CUTTRF = 1.0E-09     MPTRAN =       0
     DIRTRF =       T     AOINTS =DUP     

          ----------------------
          INTEGRAL INPUT OPTIONS
          ----------------------
 NOPK  =       1 NORDER=       0 SCHWRZ=       T

     ------------------------------------------
     THE POINT GROUP IS C1 , NAXIS= 0, ORDER= 1
     ------------------------------------------

     DIMENSIONS OF THE SYMMETRY SUBSPACES ARE
 A   =   96

 ..... DONE SETTING UP THE RUN .....
 CPU     0: STEP CPU TIME=     0.02 TOTAL CPU TIME=          0.0 (      0.0 MIN)
 TOTAL WALL CLOCK TIME=          0.0 SECONDS, CPU UTILIZATION IS    43.40%


          -----------------------------
          STATIONARY POINT LOCATION RUN
          -----------------------------

 OBTAINING INITIAL HESSIAN, HESS=GUESS   
 CARTESIAN COORDINATE OPTIMIZATION USING BADGER'S RULE FORCE CONSTANT GUESS

          PARAMETERS CONTROLLING GEOMETRY SEARCH ARE
          METHOD =QA                  UPHESS =BFGS    
          NNEG   =         0          NFRZ   =         0
          NSTEP  =       100          IFOLOW =         1
          HESS   =GUESS               RESTAR =         F
          IHREP  =         0          HSSEND =         F
          NPRT   =         0          NPUN   =         0
          OPTTOL = 1.000E-03          RMIN   = 1.500E-03
          RMAX   = 1.000E-01          RLIM   = 7.000E-02
          DXMAX  = 3.000E-01          PURIFY =         F
          MOVIE  =         F          TRUPD  =         T
          TRMAX  = 5.000E-01          TRMIN  = 5.000E-02
          ITBMAT =         5          STPT   =         F
          STSTEP = 1.000E-02          PROJCT=          T

 BEGINNING GEOMETRY SEARCH POINT NSERCH=   0 ...

 COORDINATES OF ALL ATOMS ARE (ANGS)
   ATOM   CHARGE       X              Y              Z
 ------------------------------------------------------------
 C           6.0   1.1430000000  -2.0048000000   0.3400000000
 C           6.0  -0.0194000000  -2.3311000000  -0.3293000000
 C           6.0   1.9999000000  -1.1414000000  -0.3275000000
 C           6.0   0.0035000000  -1.3866000000  -1.3627000000
 C           6.0   1.2052000000  -0.6814000000  -1.3764000000
 C           6.0   2.3179000000   0.0154000000   0.3449000000
 C           6.0   2.0040000000   1.1756000000  -0.3358000000
 C           6.0   1.2054000000   0.7147000000  -1.3981000000
 C           6.0   1.3974000000  -0.0110000000   1.3960000000
 C           6.0   0.6918000000  -1.2138000000   1.3982000000
 C           6.0  -0.7015000000  -1.2372000000   1.3837000000
 C           6.0   0.7129000000   1.2085000000   1.3787000000
 C           6.0  -0.6816000000   1.1837000000   1.3835000000
 C           6.0  -1.3859000000  -0.0188000000   1.3716000000
 C           6.0   1.1577000000   2.0292000000   0.3418000000
 C           6.0  -2.0152000000  -1.1842000000  -0.3321000000
 C           6.0  -1.1890000000  -2.0446000000   0.3509000000
 C           6.0  -2.3122000000  -0.0010000000   0.3344000000
 C           6.0  -1.9929000000   1.1628000000  -0.3355000000
 C           6.0  -1.1298000000   2.0048000000   0.3415000000
 C           6.0   0.0108000000   2.3271000000  -0.3720000000
 C           6.0  -1.2103000000  -0.6884000000  -1.3686000000
 C           6.0  -1.2063000000   0.7085000000  -1.4011000000
 C           6.0  -0.0043000000   1.4166000000  -1.4269000000

          ********************
          1 ELECTRON INTEGRALS
          ********************

          **************************
          1 AND 2 ELECTRON INTEGRALS
          **************************

 MOPAC ONE- AND TWO-ELECTRON INTEGRALS REQUIRE     36912 WORDS.
 ...... END OF ONE- AND TWO-ELECTRON INTEGRALS......
 CPU     0: STEP CPU TIME=     0.00 TOTAL CPU TIME=          0.0 (      0.0 MIN)
 TOTAL WALL CLOCK TIME=          0.0 SECONDS, CPU UTILIZATION IS    39.06%
 ...... END OF ONE-ELECTRON INTEGRALS ......
 CPU     0: STEP CPU TIME=     0.00 TOTAL CPU TIME=          0.0 (      0.0 MIN)
 TOTAL WALL CLOCK TIME=          0.0 SECONDS, CPU UTILIZATION IS    38.11%

          -------------
          GUESS OPTIONS
          -------------
          GUESS =HUCKEL            NORB  =       0          NORDER=       0
          MIX   =       F          PRTMO =       F          PUNMO =       F
          TOLZ  = 1.0E-08          TOLE  = 1.0E-05
          SYMDEN=       F          PURIFY=       F

 INITIAL GUESS ORBITALS GENERATED BY HUCKEL   ROUTINE.

 SYMMETRIES FOR INITIAL GUESS ORBITALS FOLLOW.   BOTH SET(S).
    48 ORBITALS ARE OCCUPIED (    0 CORE ORBITALS).
     1=A        2=A        3=A        4=A        5=A        6=A        7=A   
     8=A        9=A       10=A       11=A       12=A       13=A       14=A   
    15=A       16=A       17=A       18=A       19=A       20=A       21=A   
    22=A       23=A       24=A       25=A       26=A       27=A       28=A   
    29=A       30=A       31=A       32=A       33=A       34=A       35=A   
    36=A       37=A       38=A       39=A       40=A       41=A       42=A   
    43=A       44=A       45=A       46=A       47=A       48=A       49=A   
    50=A       51=A       52=A       53=A       54=A       55=A       56=A   
    57=A       58=A   
 ...... END OF INITIAL ORBITAL SELECTION ......
 CPU     0: STEP CPU TIME=     0.02 TOTAL CPU TIME=          0.0 (      0.0 MIN)
 TOTAL WALL CLOCK TIME=          0.0 SECONDS, CPU UTILIZATION IS    63.78%

          --------------------------
               R-PM3 SCF CALCULATION
          --------------------------

     NUCLEAR ENERGY =       778.4082082906
     MAXIT =  200     NPUNCH=    2
     EXTRAP=T  DAMP=F  SHIFT=F  RSTRCT=F  DIIS=F  DEM=F  SOSCF=T
     DENSITY MATRIX CONV=  2.00E-05
     SOSCF WILL OPTIMIZE    2304 ORBITAL ROTATIONS, SOGTOL=   0.250
     MEMORY REQUIRED FOR RHF ITERS=    103056 WORDS.

                                                                                   NONZERO     BLOCKS
 ITER EX DEM     TOTAL ENERGY        E CHANGE  DENSITY CHANGE     ORB. GRAD      INTEGRALS    SKIPPED
   1  0  0     -102.1827634378  -102.1827634378   0.170928936   0.000000000              0          0
          ---------------START SECOND ORDER SCF---------------
   2  1  0     -102.9780693564    -0.7953059187   0.050569419   0.021934863              0          0
   3  2  0     -103.0378348226    -0.0597654661   0.024298037   0.006531895              0          0
   4  3  0     -103.0441946802    -0.0063598576   0.015886171   0.005043263              0          0
   5  4  0     -103.0445116898    -0.0003170096   0.006592163   0.004329649              0          0
   6  5  0     -103.0449855065    -0.0004738167   0.002932972   0.000848094              0          0
   7  6  0     -103.0450565824    -0.0000710759   0.019097807   0.001041833              0          0
   8  7  0     -103.0452631822    -0.0002065997   0.019463267   0.001133161              0          0
   9  8  0     -103.0454435434    -0.0001803612   0.045999817   0.001159084              0          0
  10  9  0     -103.0457529163    -0.0003093729   0.013339649   0.001359898              0          0
  11 10  0     -103.0460016108    -0.0002486945   0.014200977   0.000927642              0          0
  12 11  0     -103.0462387008    -0.0002370901   0.006822412   0.000772110              0          0
  13 12  0     -103.0462958556    -0.0000571548   0.010800239   0.000640275              0          0
  14 13  0     -103.0464143081    -0.0001184524   0.004121617   0.000407658              0          0
  15 14  0     -103.0464490872    -0.0000347791   0.004854163   0.000426225              0          0
  16 15  0     -103.0464736444    -0.0000245571   0.002808365   0.000352842              0          0
  17 16  0     -103.0464845450    -0.0000109006   0.003750658   0.000222674              0          0
  18 17  0     -103.0464969278    -0.0000123828   0.004501201   0.000219686              0          0
  19 18  0     -103.0465080408    -0.0000111130   0.008007652   0.000246006              0          0
  20 19  0     -103.0465256244    -0.0000175836   0.013699455   0.000396125              0          0
  21 20  0     -103.0465545925    -0.0000289681   0.024885678   0.000649895              0          0
  22 21  0     -103.0466037524    -0.0000491600   0.020447389   0.000919511              0          0
  23 22  0     -103.0466689684    -0.0000652160   0.021588649   0.000903388              0          0
  24 23  0     -103.0467943806    -0.0001254121   0.006801983   0.000746451              0          0
  25 24  0     -103.0468726344    -0.0000782538   0.011480521   0.000634925              0          0
  26 25  0     -103.0469188713    -0.0000462369   0.006841026   0.000659134              0          0
  27 26  0     -103.0469501099    -0.0000312386   0.004687434   0.000463700              0          0
  28 27  0     -103.0469797216    -0.0000296117   0.012075955   0.000356762              0          0
  29 28  0     -103.0470269509    -0.0000472293   0.005512570   0.000253727              0          0
  30 29  0     -103.0470476804    -0.0000207295   0.005133332   0.000252181              0          0
  31 30  0     -103.0470658809    -0.0000182005   0.001719171   0.000238682              0          0
  32 31  0     -103.0470734610    -0.0000075802   0.002105325   0.000221353              0          0
  33 32  0     -103.0470808461    -0.0000073851   0.002515324   0.000194139              0          0
  34 33  0     -103.0470881633    -0.0000073172   0.003233601   0.000158755              0          0
  35 34  0     -103.0470963561    -0.0000081928   0.003364131   0.000202487              0          0
  36 35  0     -103.0471031830    -0.0000068269   0.002858863   0.000198166              0          0
  37 36  0     -103.0471084483    -0.0000052653   0.002429336   0.000140172              0          0
  38 37  0     -103.0471132019    -0.0000047536   0.003083793   0.000148796              0          0
  39 38  0     -103.0471192499    -0.0000060480   0.005017193   0.000161761              0          0
  40 39  0     -103.0471283102    -0.0000090603   0.007610832   0.000218568              0          0
  41 40  0     -103.0471415235    -0.0000132134   0.010078047   0.000315690              0          0
  42 41  0     -103.0471578973    -0.0000163738   0.009866263   0.000372568              0          0
  43 42  0     -103.0471737111    -0.0000158138   0.007086051   0.000301861              0          0
  44 43  0     -103.0471856586    -0.0000119476   0.005885680   0.000175551              0          0
  45 44  0     -103.0471925421    -0.0000068835   0.003596218   0.000138710              0          0
  46 45  0     -103.0471966729    -0.0000041308   0.004551021   0.000104749              0          0
  47 46  0     -103.0472005864    -0.0000039135   0.002650951   0.000114474              0          0
  48 47  0     -103.0472044430    -0.0000038565   0.003178037   0.000098299              0          0
  49 48  0     -103.0472074985    -0.0000030556   0.001698188   0.000102827              0          0
  50 49  0     -103.0472090997    -0.0000016011   0.001886199   0.000052237              0          0
  51 50  0     -103.0472097774    -0.0000006778   0.000828454   0.000026354              0          0
  52 51  0     -103.0472099890    -0.0000002116   0.000408034   0.000019266              0          0
  53 52  0     -103.0472100913    -0.0000001023   0.000494826   0.000015478              0          0
  54 53  0     -103.0472101670    -0.0000000757   0.000301279   0.000011496              0          0
  55 54  0     -103.0472102025    -0.0000000354   0.000163825   0.000008193              0          0
  56 55  0     -103.0472102216    -0.0000000191   0.000071737   0.000007545              0          0
  57 56  0     -103.0472102314    -0.0000000098   0.000089573   0.000005448              0          0
  58 57  0     -103.0472102383    -0.0000000069   0.000109963   0.000003243              0          0
  59 58  0     -103.0472102433    -0.0000000050   0.000093776   0.000003262              0          0
  60 59  0     -103.0472102464    -0.0000000030   0.000053829   0.000002732              0          0
  61 60  0     -103.0472102475    -0.0000000011   0.000019313   0.000001245              0          0
  62 61  0     -103.0472102478    -0.0000000003   0.000006242   0.000000613              0          0

          -----------------
          DENSITY CONVERGED
          -----------------
     TIME TO FORM FOCK OPERATORS=       0.0 SECONDS (       0.0 SEC/ITER)
     FOCK TIME ON FIRST ITERATION=       0.0, LAST ITERATION=       0.0
     TIME TO SOLVE SCF EQUATIONS=       0.2 SECONDS (       0.0 SEC/ITER)

 FINAL R-PM3 ENERGY IS     -103.0472102478 AFTER  62 ITERATIONS

 HEAT OF FORMATION IS       998.11430 KCAL/MOL
 

          ------------
          EIGENVECTORS
          ------------

                      1          2          3          4          5
                   -2.0046    -1.6762    -1.6682    -1.4631    -1.2876
                     A          A          A          A          A   
    1  C  1  S    0.192455   0.287025   0.095750  -0.052635   0.072345
    2  C  1  X   -0.032913  -0.022654  -0.069670   0.013558   0.115611
    3  C  1  Y    0.059155   0.084085  -0.007882  -0.026250   0.083119
    4  C  1  Z   -0.015071  -0.028074  -0.008874  -0.076554  -0.011070
    5  C  2  S    0.187825   0.196892   0.226861   0.054357  -0.223625
    6  C  2  X    0.001252   0.049241  -0.043066   0.001855   0.098161
    7  C  2  Y    0.066537   0.058355   0.066629   0.029378  -0.043697
    8  C  2  Z    0.014704   0.018263   0.022568  -0.072381  -0.031090
    9  C  3  S    0.195244   0.300777  -0.068616   0.055760   0.302027
   10  C  3  X   -0.059144  -0.082477  -0.015886  -0.027231  -0.032179
   11  C  3  Y    0.034148   0.031784  -0.067676   0.013665   0.060965
   12  C  3  Z    0.014295   0.026773  -0.006160  -0.078766   0.035113
   13  C  4  S    0.200921   0.149399   0.164328   0.263414  -0.101455
   14  C  4  X    0.001735   0.061140  -0.053948   0.003574   0.085697
   15  C  4  Y    0.025861  -0.015194  -0.018469   0.068906   0.043553
   16  C  4  Z    0.054532   0.053300   0.059760   0.008743  -0.045663
   17  C  5  S    0.203064   0.219123  -0.051385   0.268995   0.147387
   18  C  5  X   -0.021806   0.012107  -0.043690  -0.059194   0.063897
   19  C  5  Y    0.011874  -0.027758  -0.066431   0.031992  -0.006287
   20  C  5  Z    0.056522   0.080583  -0.017946   0.011223   0.065854
   21  C  6  S    0.190579   0.222642  -0.205995  -0.059827   0.209322
   22  C  6  X   -0.067495  -0.065810   0.060735   0.031618  -0.041892
   23  C  6  Y   -0.002382  -0.047196  -0.045823  -0.000616  -0.107673
   24  C  6  Z   -0.015216  -0.022332   0.020350  -0.075137  -0.028598
   25  C  7  S    0.186677   0.087542  -0.285675   0.048501  -0.094070
   26  C  7  X   -0.056405   0.009261   0.081608  -0.023844   0.085073
   27  C  7  Y   -0.033526  -0.066816   0.025354  -0.014129  -0.108934
   28  C  7  Z    0.014895   0.008582  -0.028099  -0.075244  -0.012011
   29  C  8  S    0.196063   0.063032  -0.210267   0.261083  -0.048592
   30  C  8  X   -0.022380   0.043872  -0.005244  -0.060256   0.043506
   31  C  8  Y   -0.014507  -0.062503  -0.028779  -0.036589  -0.107662
   32  C  8  Z    0.053894   0.023527  -0.075314   0.010156  -0.019317
   33  C  9  S    0.198800   0.163445  -0.147265  -0.265986   0.102905
   34  C  9  X   -0.025814   0.016483  -0.015677   0.067243   0.038995
   35  C  9  Y   -0.000654  -0.053196  -0.058544  -0.001450  -0.083383
   36  C  9  Z   -0.055477  -0.060212   0.054344   0.013247  -0.046746
   37  C 10  S    0.198717   0.207297   0.069988  -0.259839   0.033330
   38  C 10  X   -0.011831   0.032897  -0.062628   0.030546   0.106192
   39  C 10  Y    0.022581  -0.005671  -0.043643  -0.059788   0.046092
   40  C 10  Z   -0.055745  -0.076753  -0.025508   0.011731  -0.016115
   41  C 11  S    0.196469   0.046289   0.219990  -0.251767  -0.149767
   42  C 11  X    0.013468   0.063543  -0.024792  -0.034193   0.001797
   43  C 11  Y    0.023464  -0.041410  -0.008231  -0.060715   0.063373
   44  C 11  Z   -0.053781  -0.016582  -0.078689   0.008584   0.064679
   45  C 12  S    0.198413  -0.046127  -0.217025  -0.265072  -0.144410
   46  C 12  X   -0.014031   0.065291  -0.024167   0.035411  -0.001930
   47  C 12  Y   -0.023197  -0.042948  -0.009981   0.060336  -0.064309
   48  C 12  Z   -0.053803   0.016442   0.077742   0.010459   0.063316
   49  C 13  S    0.202208  -0.212796  -0.066946  -0.268948   0.044117
   50  C 13  X    0.011968   0.034209  -0.063599  -0.034403  -0.109807
   51  C 13  Y   -0.021900  -0.008085  -0.046245   0.058098  -0.045994
   52  C 13  Z   -0.055809   0.077638   0.024695   0.011706  -0.018581
   53  C 14  S    0.201297  -0.164884   0.155420  -0.260936   0.106515
   54  C 14  X    0.025731   0.017427  -0.015460  -0.067987  -0.040533
   55  C 14  Y    0.001499  -0.056098  -0.059299  -0.003830   0.091196
   56  C 14  Z   -0.054879   0.059321  -0.055568   0.008636  -0.046182
   57  C 15  S    0.184711  -0.065177  -0.290257  -0.056653  -0.299381
   58  C 15  X   -0.032185   0.063311   0.029808   0.013480   0.056305
   59  C 15  Y   -0.057275  -0.014147   0.081934   0.027306   0.036474
   60  C 15  Z   -0.014534   0.006620   0.028435  -0.072836   0.040666
   61  C 16  S    0.184393  -0.088304   0.285499   0.051638  -0.085945
   62  C 16  X    0.056532   0.007336   0.082524   0.024202  -0.080909
   63  C 16  Y    0.033189  -0.065945   0.025635   0.014906   0.108636
   64  C 16  Z    0.015117  -0.008809   0.029229  -0.070601  -0.012470
   65  C 17  S    0.182169   0.059585   0.291473  -0.050577  -0.296914
   66  C 17  X    0.033694   0.061232   0.034021  -0.013813  -0.063950
   67  C 17  Y    0.056809  -0.014413   0.082850  -0.024203  -0.035579
   68  C 17  Z   -0.014808  -0.006254  -0.028745  -0.068154   0.038617
   69  C 18  S    0.189198  -0.223124   0.205423  -0.051982   0.215082
   70  C 18  X    0.067028  -0.066301   0.060446  -0.028997   0.043889
   71  C 18  Y    0.000428  -0.044750  -0.049339  -0.000224   0.104123
   72  C 18  Z   -0.013620   0.019800  -0.017773  -0.074750  -0.025049
   73  C 19  S    0.190864  -0.297627   0.062423   0.058610   0.297716
   74  C 19  X    0.058582  -0.083483  -0.016986   0.027308   0.033146
   75  C 19  Y   -0.033151   0.030855  -0.065503  -0.014528  -0.061840
   76  C 19  Z    0.015150  -0.029035   0.006934  -0.076568   0.040505
   77  C 20  S    0.192269  -0.291139  -0.096864  -0.053602   0.076335
   78  C 20  X    0.032263  -0.022086  -0.068892  -0.015046  -0.116955
   79  C 20  Y   -0.058626   0.083888  -0.007555   0.026847  -0.083898
   80  C 20  Z   -0.014970   0.028019   0.010138  -0.078450  -0.006655
   81  C 21  S    0.186205  -0.200571  -0.222815   0.061212  -0.220723
   82  C 21  X   -0.001417   0.048986  -0.041183  -0.002363  -0.097479
   83  C 21  Y   -0.065813   0.059363   0.065406  -0.032329   0.044323
   84  C 21  Z    0.016020  -0.021108  -0.023360  -0.074014  -0.029150
   85  C 22  S    0.197300  -0.069108   0.208686   0.258271  -0.034930
   86  C 22  X    0.022734   0.043200  -0.006473   0.059822  -0.043352
   87  C 22  Y    0.013075  -0.062317  -0.032877   0.035231   0.107481
   88  C 22  Z    0.053351  -0.024150   0.075607   0.007892  -0.016114
   89  C 23  S    0.196355  -0.215600   0.042145   0.265369   0.140995
   90  C 23  X    0.022488   0.009350  -0.043101   0.059231  -0.063585
   91  C 23  Y   -0.011965  -0.025596  -0.063883  -0.030992  -0.001498
   92  C 23  Z    0.055108  -0.079292   0.017100   0.013197   0.065590
   93  C 24  S    0.192757  -0.147748  -0.161914   0.263900  -0.109911
   94  C 24  X   -0.000716   0.056631  -0.050295  -0.002256  -0.083175
   95  C 24  Y   -0.026227  -0.012847  -0.014157  -0.068033  -0.038596
   96  C 24  Z    0.054738  -0.054365  -0.059338   0.015880  -0.046957

                      6          7          8          9         10
                   -1.2841    -1.1722    -1.1638    -1.1063    -0.9838
                     A          A          A          A          A   
    1  C  1  S    0.302640  -0.101309  -0.022298   0.162075   0.234822
    2  C  1  X   -0.061774   0.014910   0.030360   0.001619  -0.125655
    3  C  1  Y    0.034354  -0.048216   0.004203   0.001604  -0.047910
    4  C  1  Z   -0.036863  -0.148342  -0.036732  -0.047518  -0.044488
    5  C  2  S    0.213403   0.073610   0.074550   0.165151   0.161976
    6  C  2  X    0.104023   0.022532  -0.021173  -0.001912   0.185696
    7  C  2  Y    0.041962   0.036515   0.035466   0.004406   0.013352
    8  C  2  Z    0.028362  -0.106247  -0.102767   0.043182   0.033436
    9  C  3  S    0.072542   0.092752  -0.034912   0.176209  -0.176361
   10  C  3  X   -0.083566  -0.048039  -0.003055   0.000383  -0.081062
   11  C  3  Y   -0.118829   0.013232  -0.035750   0.005643  -0.165977
   12  C  3  Z    0.010017  -0.151632   0.046569   0.043213  -0.033105
   13  C  4  S    0.102511   0.245911   0.232869  -0.164597   0.043109
   14  C  4  X    0.086425   0.091356  -0.095777  -0.000750   0.105868
   15  C  4  Y   -0.043354  -0.000176  -0.001966  -0.147005  -0.037764
   16  C  4  Z    0.046810   0.025305   0.025341   0.071500   0.030060
   17  C  5  S    0.029709   0.322088  -0.103360  -0.161627  -0.049630
   18  C  5  X   -0.045952  -0.016789  -0.067374   0.130474  -0.084825
   19  C  5  Y   -0.111341  -0.039697  -0.110877  -0.070881  -0.070332
   20  C  5  Z    0.016335   0.036696  -0.011415   0.074707  -0.029634
   21  C  6  S   -0.224961  -0.079826   0.073280   0.171631  -0.217186
   22  C  6  X    0.044970   0.035524  -0.037788  -0.003770   0.019309
   23  C  6  Y   -0.096744   0.026302   0.022629  -0.004882   0.148858
   24  C  6  Z    0.030924  -0.100693   0.111480  -0.050042   0.045553
   25  C  7  S   -0.295688   0.018946  -0.095929   0.164776   0.190447
   26  C  7  X    0.029980   0.003806   0.042438  -0.002456  -0.100495
   27  C  7  Y    0.063541  -0.028617   0.020025  -0.003848   0.143667
   28  C  7  Z   -0.038380  -0.031654   0.145229   0.045138   0.037848
   29  C  8  S   -0.146079   0.069226  -0.324522  -0.164042   0.049639
   30  C  8  X   -0.063886   0.062515   0.012288   0.125111  -0.013687
   31  C  8  Y    0.004749  -0.108776  -0.020322   0.071821   0.108239
   32  C  8  Z   -0.062617   0.009064  -0.035829   0.068792   0.033953
   33  C  9  S   -0.102139  -0.231151   0.237889  -0.166751  -0.065464
   34  C  9  X   -0.042961  -0.004256   0.003868   0.145973  -0.043591
   35  C  9  Y   -0.086388   0.096054   0.089762  -0.002357   0.075003
   36  C  9  Z    0.047394   0.028524  -0.029043  -0.070524   0.038965
   37  C 10  S    0.151675  -0.322236  -0.080018  -0.167346   0.066424
   38  C 10  X    0.000783  -0.031922   0.108618   0.070268  -0.043383
   39  C 10  Y   -0.062666  -0.013006   0.061040  -0.123861  -0.084200
   40  C 10  Z   -0.066329   0.038940   0.008295  -0.068109  -0.044567
   41  C 11  S   -0.032613  -0.098603  -0.317629  -0.156060  -0.061359
   42  C 11  X    0.110353  -0.101220   0.031352  -0.073516   0.097679
   43  C 11  Y   -0.045557   0.056303  -0.025592  -0.126147  -0.000605
   44  C 11  Z    0.016205   0.009303   0.031796  -0.069587   0.038201
   45  C 12  S   -0.040875   0.099226   0.315709  -0.166215   0.051636
   46  C 12  X   -0.108482  -0.108859   0.030820   0.074057   0.096824
   47  C 12  Y    0.043797   0.063748  -0.017266   0.127677   0.007347
   48  C 12  Z    0.018677  -0.012318  -0.034511  -0.070568  -0.042735
   49  C 13  S    0.142634   0.328071   0.069460  -0.168273  -0.063434
   50  C 13  X   -0.001425  -0.027455   0.114006  -0.075869  -0.051028
   51  C 13  Y    0.066200  -0.005846   0.070080   0.128080  -0.081709
   52  C 13  Z   -0.063034  -0.039605  -0.009547  -0.072045   0.034866
   53  C 14  S   -0.110630   0.216338  -0.255967  -0.160634   0.057870
   54  C 14  X    0.045255  -0.001772   0.000665  -0.146653  -0.050001
   55  C 14  Y    0.082450   0.099740   0.084869  -0.002012   0.085611
   56  C 14  Z    0.049606  -0.022692   0.025588  -0.072794  -0.039803
   57  C 15  S   -0.077796   0.034826   0.097705   0.163179   0.227637
   58  C 15  X   -0.110324  -0.035454  -0.014532  -0.003030   0.114563
   59  C 15  Y    0.081705   0.000824  -0.046509  -0.004164  -0.085898
   60  C 15  Z    0.009697   0.043335   0.138435  -0.045337  -0.048991
   61  C 16  S   -0.296442  -0.023802   0.098874   0.163465  -0.175675
   62  C 16  X   -0.031737   0.007051   0.045542   0.005075  -0.095554
   63  C 16  Y   -0.065105  -0.031431   0.019585   0.000414   0.143136
   64  C 16  Z   -0.038306   0.029064  -0.143433   0.045836  -0.036613
   65  C 17  S   -0.079427  -0.029161  -0.092220   0.167131  -0.228411
   66  C 17  X    0.107357  -0.030340  -0.014923   0.003814   0.100858
   67  C 17  Y   -0.080730   0.002013  -0.045468   0.006943  -0.081856
   68  C 17  Z    0.011971  -0.041014  -0.136912  -0.045126   0.047949
   69  C 18  S   -0.224872   0.060950  -0.074606   0.165283   0.222983
   70  C 18  X   -0.044651   0.033046  -0.036941   0.004218   0.019739
   71  C 18  Y    0.100990   0.023082   0.020743   0.000964   0.141383
   72  C 18  Z    0.027230   0.100817  -0.114830  -0.041059  -0.042737
   73  C 19  S    0.078610  -0.103747   0.034298   0.168529   0.173168
   74  C 19  X    0.084489  -0.046235  -0.001255   0.004182  -0.077029
   75  C 19  Y    0.114643   0.016658  -0.034995   0.003078  -0.163420
   76  C 19  Z    0.010071   0.144584  -0.047160   0.048490   0.036955
   77  C 20  S    0.300608   0.102414   0.024557   0.175670  -0.226042
   78  C 20  X    0.057774   0.020525   0.032990  -0.000113  -0.123641
   79  C 20  Y   -0.031689  -0.047565   0.005179  -0.001377  -0.054307
   80  C 20  Z   -0.039127   0.150385   0.033843  -0.047243   0.046643
   81  C 21  S    0.213862  -0.076907  -0.074052   0.165863  -0.166356
   82  C 21  X   -0.102100   0.025279  -0.023346  -0.004185   0.179552
   83  C 21  Y   -0.042796   0.037622   0.035944  -0.003010   0.015432
   84  C 21  Z    0.030181   0.108460   0.100291   0.052189  -0.037147
   85  C 22  S   -0.148913  -0.072283   0.327735  -0.164691  -0.044836
   86  C 22  X    0.063035   0.063617   0.015217  -0.125434  -0.022379
   87  C 22  Y    0.002029  -0.108108  -0.025013  -0.072500   0.109913
   88  C 22  Z   -0.063454  -0.006520   0.034187   0.069913  -0.026794
   89  C 23  S    0.037421  -0.318325   0.102722  -0.164789   0.042687
   90  C 23  X    0.044304  -0.015475  -0.063841  -0.122387  -0.085205
   91  C 23  Y    0.107140  -0.037003  -0.107484   0.073568  -0.073917
   92  C 23  Z    0.016862  -0.038464   0.014555   0.070125   0.033396
   93  C 24  S    0.104076  -0.243093  -0.223632  -0.164523  -0.051072
   94  C 24  X   -0.081898   0.087457  -0.093561  -0.001503   0.103817
   95  C 24  Y    0.039417  -0.000164  -0.000999   0.142548  -0.032450
   96  C 24  Z    0.047610  -0.030554  -0.028833   0.065741  -0.030341

                     11         12         13         14         15
                   -0.9813    -0.9137    -0.9129    -0.8709    -0.8670
                     A          A          A          A          A   
    1  C  1  S    0.166863  -0.010127   0.088329   0.134528  -0.142403
    2  C  1  X    0.154057  -0.072198  -0.031455  -0.015768  -0.047973
    3  C  1  Y    0.107168  -0.046814   0.041172  -0.046103   0.015983
    4  C  1  Z   -0.034445  -0.016914   0.188115  -0.072572   0.077410
    5  C  2  S   -0.232657  -0.075240  -0.051606   0.192565  -0.068183
    6  C  2  X    0.131251   0.050515  -0.074223  -0.009862  -0.042756
    7  C  2  Y   -0.015132  -0.039819  -0.030215  -0.040325   0.012684
    8  C  2  Z   -0.050586   0.143382   0.105815   0.087752  -0.024584
    9  C  3  S    0.219047   0.081593  -0.034416   0.043921  -0.210723
   10  C  3  X   -0.085985  -0.023985   0.061879  -0.019741  -0.051167
   11  C  3  Y   -0.120183   0.050887   0.063522  -0.051896   0.008038
   12  C  3  Z    0.043842  -0.175875   0.078946   0.010901  -0.091421
   13  C  4  S   -0.052974  -0.196739  -0.141670  -0.258782   0.089393
   14  C  4  X    0.079824   0.132220  -0.183098   0.047529   0.126278
   15  C  4  Y    0.050113   0.059937   0.050402  -0.121245   0.045332
   16  C  4  Z   -0.036656  -0.033056  -0.027974   0.063804  -0.029947
   17  C  5  S    0.052930   0.221934  -0.089609  -0.043252   0.271115
   18  C  5  X   -0.002929   0.111946   0.071719   0.088328  -0.096564
   19  C  5  Y   -0.103732   0.032069   0.205484   0.097298   0.078306
   20  C  5  Z    0.039570   0.044949  -0.023789   0.013804  -0.076193
   21  C  6  S   -0.179310  -0.079575  -0.049956  -0.073369  -0.187178
   22  C  6  X    0.014673   0.039322   0.032091  -0.012117  -0.044072
   23  C  6  Y   -0.171390   0.053809  -0.075881  -0.046690   0.028731
   24  C  6  Z    0.039459  -0.144605  -0.106973   0.033342   0.102973
   25  C  7  S   -0.216069  -0.010459   0.077262  -0.154489  -0.123800
   26  C  7  X   -0.057087   0.042803  -0.035061  -0.010974  -0.041198
   27  C  7  Y    0.132296  -0.067898  -0.033985  -0.041055   0.017674
   28  C  7  Z   -0.043005   0.020487  -0.175182  -0.076775  -0.056274
   29  C  8  S   -0.065795  -0.037487   0.244931   0.206934   0.175526
   30  C  8  X   -0.081070   0.104896   0.072473  -0.118391  -0.017932
   31  C  8  Y    0.054797  -0.189008   0.002128   0.023676  -0.129167
   32  C  8  Z   -0.036468   0.001425   0.040059  -0.050329  -0.043240
   33  C  9  S   -0.042346  -0.192205  -0.141066   0.086895   0.265609
   34  C  9  X   -0.037664  -0.067779  -0.041716  -0.043468  -0.105611
   35  C  9  Y   -0.108937   0.122671  -0.181805   0.123633  -0.040556
   36  C  9  Z    0.029256   0.040706   0.025390   0.020786   0.063691
   37  C 10  S    0.049476  -0.013257   0.240754  -0.180364   0.205841
   38  C 10  X    0.110519  -0.193863   0.025637   0.120256   0.039647
   39  C 10  Y    0.025824  -0.096331  -0.080735  -0.017658   0.115144
   40  C 10  Z   -0.031341   0.007907  -0.050002  -0.040752   0.049928
   41  C 11  S   -0.050401   0.230583  -0.098503  -0.263969  -0.049778
   42  C 11  X   -0.071269   0.042824   0.184859  -0.079859   0.085012
   43  C 11  Y    0.087753  -0.089045  -0.082892  -0.099696  -0.081399
   44  C 11  Z    0.032727  -0.032767   0.014088  -0.064157  -0.010997
   45  C 12  S    0.040545   0.218214  -0.099771   0.272144   0.050244
   46  C 12  X   -0.073205  -0.049633  -0.186588  -0.088054   0.101600
   47  C 12  Y    0.085081   0.101302   0.080902  -0.093206  -0.084331
   48  C 12  Z   -0.027613  -0.037596   0.011636   0.066608   0.012655
   49  C 13  S   -0.048881  -0.033186   0.230667   0.178583  -0.215937
   50  C 13  X    0.108425   0.203255  -0.018524   0.133865   0.030595
   51  C 13  Y    0.021842   0.101514   0.093088  -0.012191   0.122529
   52  C 13  Z    0.029461   0.008528  -0.050427   0.044462  -0.055129
   53  C 14  S    0.051070  -0.187199  -0.157364  -0.098505  -0.251195
   54  C 14  X   -0.043706   0.065979   0.040433  -0.045648  -0.118498
   55  C 14  Y   -0.105573  -0.146771   0.170526   0.118406  -0.052514
   56  C 14  Z   -0.033697   0.037025   0.020629  -0.022946  -0.071217
   57  C 15  S    0.175471   0.082619  -0.030146  -0.192081  -0.037973
   58  C 15  X   -0.154779  -0.053522  -0.064929  -0.014819  -0.039642
   59  C 15  Y    0.074880  -0.021762   0.055417  -0.035218   0.014960
   60  C 15  Z   -0.039078   0.155833  -0.066133   0.094762   0.019072
   61  C 16  S    0.223570  -0.007651   0.086654   0.152612   0.128391
   62  C 16  X   -0.052901  -0.051216   0.035917  -0.016212  -0.040486
   63  C 16  Y    0.133770   0.071963   0.033770  -0.036362   0.016863
   64  C 16  Z    0.044705   0.021522  -0.169278   0.073345   0.064513
   65  C 17  S   -0.175749   0.072583  -0.028827   0.191786   0.038728
   66  C 17  X   -0.162147   0.049062   0.056696  -0.009191  -0.047198
   67  C 17  Y    0.074301   0.021553  -0.057054  -0.036400   0.019010
   68  C 17  Z    0.034586   0.157692  -0.068348  -0.091860  -0.015526
   69  C 18  S    0.180923  -0.066084  -0.046134   0.077733   0.189876
   70  C 18  X    0.014619  -0.041891  -0.027516  -0.015315  -0.039806
   71  C 18  Y   -0.180296  -0.054801   0.067271  -0.044549   0.015435
   72  C 18  Z   -0.032491  -0.148463  -0.110226  -0.038336  -0.081347
   73  C 19  S   -0.227208   0.085759  -0.037020  -0.031698   0.196954
   74  C 19  X   -0.087697   0.022442  -0.058607  -0.022400  -0.041164
   75  C 19  Y   -0.109323  -0.055974  -0.063748  -0.056127   0.023731
   76  C 19  Z   -0.045491  -0.173568   0.074496  -0.021844   0.103264
   77  C 20  S   -0.161761  -0.011395   0.089268  -0.141978   0.160869
   78  C 20  X    0.160031   0.076393   0.035117  -0.016023  -0.051767
   79  C 20  Y    0.104271   0.051603  -0.040296  -0.045884   0.017007
   80  C 20  Z    0.030219  -0.024435   0.186552   0.068047  -0.076833
   81  C 21  S    0.233772  -0.068869  -0.056086  -0.182138   0.061772
   82  C 21  X    0.127140  -0.051665   0.076796  -0.007892  -0.052398
   83  C 21  Y   -0.018458   0.041985   0.029177  -0.040624   0.016208
   84  C 21  Z    0.049475   0.142633   0.107910  -0.104460   0.035175
   85  C 22  S    0.064140  -0.026755   0.239774  -0.209192  -0.178109
   86  C 22  X   -0.080979  -0.106646  -0.069738  -0.129777  -0.017336
   87  C 22  Y    0.039721   0.193456  -0.015789   0.028678  -0.122094
   88  C 22  Z    0.041614  -0.004883   0.039359   0.046902   0.046884
   89  C 23  S   -0.066335   0.222063  -0.095397   0.053712  -0.270938
   90  C 23  X    0.000826  -0.112237  -0.068865   0.074642  -0.082344
   91  C 23  Y   -0.090738  -0.039919  -0.191182   0.100004   0.078200
   92  C 23  Z   -0.041378   0.048936  -0.017374  -0.015330   0.066977
   93  C 24  S    0.059507  -0.198224  -0.141163   0.258495  -0.094108
   94  C 24  X    0.079406  -0.129875   0.174828   0.042106   0.117713
   95  C 24  Y    0.051223  -0.052632  -0.049714  -0.107075   0.035977
   96  C 24  Z    0.040963  -0.034906  -0.030567  -0.055887   0.023216

                     16         17         18         19         20
                   -0.8286    -0.7625    -0.7600    -0.7008    -0.7005
                     A          A          A          A          A   
    1  C  1  S    0.107219   0.044869  -0.254479  -0.031673  -0.113827
    2  C  1  X   -0.010902   0.252027   0.046405  -0.063325   0.018547
    3  C  1  Y    0.024236   0.150673   0.019145  -0.016760  -0.048223
    4  C  1  Z    0.132625  -0.001322   0.023545   0.036753  -0.172307
    5  C  2  S   -0.096813  -0.241340   0.082343  -0.134220  -0.008613
    6  C  2  X    0.004952  -0.110436  -0.265430  -0.034758   0.076195
    7  C  2  Y   -0.035047  -0.002913  -0.007095  -0.050182   0.000861
    8  C  2  Z    0.144791  -0.022207   0.011917   0.181095  -0.001301
    9  C  3  S   -0.091003   0.184063   0.168624   0.104481  -0.006311
   10  C  3  X    0.025451  -0.105374   0.106050  -0.053235  -0.020279
   11  C  3  Y   -0.020985  -0.179514   0.181630   0.036494  -0.049939
   12  C  3  Z    0.147603   0.010872   0.010986  -0.213893   0.017936
   13  C  4  S    0.009873  -0.057161   0.025465  -0.137169   0.017858
   14  C  4  X    0.015003  -0.017185  -0.047799   0.041708   0.258010
   15  C  4  Y    0.198934   0.077112  -0.017745   0.136055   0.004196
   16  C  4  Z   -0.105550  -0.047354   0.005627  -0.072099  -0.004715
   17  C  5  S    0.021270   0.043113   0.049208   0.169849  -0.019499
   18  C  5  X   -0.178236   0.026846   0.060937   0.100148  -0.147131
   19  C  5  Y    0.093196  -0.077702  -0.000914  -0.118645  -0.232869
   20  C  5  Z   -0.107281   0.038462   0.028714   0.075134  -0.005112
   21  C  6  S    0.104385  -0.245150   0.061360  -0.002167   0.140637
   22  C  6  X   -0.030649   0.003151  -0.004439  -0.003340  -0.041856
   23  C  6  Y   -0.001559  -0.068286  -0.282543   0.084232  -0.002109
   24  C  6  Z    0.140905   0.027419   0.004238   0.001665   0.166111
   25  C  7  S   -0.101480   0.066820  -0.251917  -0.089812   0.013831
   26  C  7  X    0.028894  -0.135553  -0.042070   0.044998  -0.020990
   27  C  7  Y    0.014419   0.237022   0.075609   0.039945   0.040465
   28  C  7  Z    0.146351   0.009249  -0.023452   0.190990  -0.012959
   29  C  8  S    0.009005   0.009468  -0.059531  -0.189058   0.010229
   30  C  8  X   -0.169970  -0.016172  -0.081781  -0.099144  -0.126359
   31  C  8  Y   -0.104039   0.069614  -0.012936  -0.042782   0.245322
   32  C  8  Z   -0.107746   0.013269  -0.051329  -0.059118  -0.003256
   33  C  9  S   -0.025600  -0.053137   0.029512  -0.000537   0.129811
   34  C  9  X    0.202124  -0.074473   0.023203  -0.000619   0.128146
   35  C  9  Y    0.009914  -0.034132  -0.066263   0.213166   0.007626
   36  C  9  Z   -0.107234   0.047547  -0.013742   0.000521  -0.068282
   37  C 10  S   -0.033931   0.016835  -0.052855   0.042758  -0.139187
   38  C 10  X    0.093754   0.075188  -0.026744  -0.202725  -0.078275
   39  C 10  Y   -0.175919   0.026835   0.076611  -0.125237   0.090963
   40  C 10  Z   -0.105964  -0.009587   0.056080   0.000582   0.070839
   41  C 11  S   -0.003255   0.039595   0.045462  -0.025166   0.167697
   42  C 11  X   -0.107502  -0.073923   0.015752   0.244117  -0.061157
   43  C 11  Y   -0.167303  -0.024201  -0.078449  -0.158386  -0.095556
   44  C 11  Z   -0.103971  -0.034188  -0.035392  -0.002780  -0.052937
   45  C 12  S   -0.003936   0.036969   0.038634  -0.022871  -0.142138
   46  C 12  X    0.098992   0.059918  -0.014879   0.196228  -0.073524
   47  C 12  Y    0.175253   0.032819   0.068349  -0.115025  -0.106736
   48  C 12  Z   -0.107204  -0.037156  -0.029420   0.006106   0.067959
   49  C 13  S   -0.021336   0.020796  -0.060317   0.041003   0.147582
   50  C 13  X   -0.092562  -0.064671   0.027287  -0.231039  -0.045726
   51  C 13  Y    0.178411  -0.015084  -0.069639  -0.122422   0.134214
   52  C 13  Z   -0.104610  -0.013021   0.044499  -0.001789  -0.072144
   53  C 14  S   -0.011960  -0.057766   0.010552  -0.027730  -0.162297
   54  C 14  X   -0.198383   0.081512  -0.025740   0.001311   0.135126
   55  C 14  Y   -0.012604   0.015980   0.065131   0.298128  -0.036468
   56  C 14  Z   -0.104256   0.050883  -0.015596  -0.002153   0.072153
   57  C 15  S    0.099321   0.185057   0.179411   0.010463  -0.140193
   58  C 15  X   -0.013872   0.167757  -0.171643   0.074963   0.022772
   59  C 15  Y   -0.033105  -0.096226   0.101771  -0.025356   0.039240
   60  C 15  Z    0.148485  -0.022659  -0.024511  -0.019283  -0.172746
   61  C 16  S   -0.101155   0.066022  -0.252842   0.144477   0.012700
   62  C 16  X   -0.029890   0.127248   0.028966   0.023890  -0.045329
   63  C 16  Y   -0.018250  -0.241401  -0.062732   0.021245   0.059036
   64  C 16  Z    0.147446   0.013823  -0.019430  -0.144157   0.009254
   65  C 17  S    0.104807   0.201009   0.176460   0.032897   0.105170
   66  C 17  X    0.014857  -0.159879   0.182211   0.044710   0.014056
   67  C 17  Y    0.029839   0.090881  -0.101191  -0.040963   0.046991
   68  C 17  Z    0.143886  -0.027333  -0.011381  -0.011100   0.179182
   69  C 18  S    0.092413  -0.244011   0.080560   0.009922  -0.114722
   70  C 18  X    0.032978  -0.004474   0.001506  -0.005958  -0.059939
   71  C 18  Y   -0.008785   0.074007   0.283106   0.038910  -0.014766
   72  C 18  Z    0.146519   0.016776  -0.008895  -0.015806  -0.196833
   73  C 19  S   -0.106633   0.182152   0.172223  -0.146281   0.010365
   74  C 19  X   -0.020789   0.102904  -0.112431  -0.045422  -0.031215
   75  C 19  Y    0.016087   0.163863  -0.194990   0.005641  -0.051487
   76  C 19  Z    0.130774   0.015475   0.020223   0.160171   0.000957
   77  C 20  S    0.095104   0.043926  -0.244422  -0.015030   0.130000
   78  C 20  X    0.018912  -0.244158  -0.034942  -0.035779   0.013615
   79  C 20  Y   -0.028355  -0.146230  -0.021989  -0.034216  -0.055232
   80  C 20  Z    0.142503   0.006295   0.024850   0.027962   0.190176
   81  C 21  S   -0.112165  -0.244403   0.088112   0.120151  -0.014807
   82  C 21  X   -0.003075   0.097108   0.261585   0.004348   0.069318
   83  C 21  Y    0.029760   0.001687   0.004883  -0.048481  -0.009114
   84  C 21  Z    0.135699  -0.033115   0.014120  -0.176796  -0.014618
   85  C 22  S    0.005749   0.006404  -0.060722   0.118460  -0.003263
   86  C 22  X    0.166899   0.018940   0.075715  -0.107252  -0.122442
   87  C 22  Y    0.110582  -0.060423   0.036889  -0.041371   0.206204
   88  C 22  Z   -0.106995   0.004955  -0.053665   0.056458  -0.003458
   89  C 23  S    0.037396   0.049634   0.033483  -0.112040  -0.013574
   90  C 23  X    0.174639  -0.024822  -0.075513   0.121021  -0.126952
   91  C 23  Y   -0.093752   0.068180  -0.028943  -0.047720  -0.211471
   92  C 23  Z   -0.107322   0.036554   0.034311  -0.080062   0.011208
   93  C 24  S    0.023575  -0.050154   0.013049   0.155218   0.011202
   94  C 24  X   -0.015002   0.017501   0.076204  -0.036981   0.266962
   95  C 24  Y   -0.200954  -0.072541   0.024701   0.122350   0.002332
   96  C 24  Z   -0.106517  -0.047786   0.013214   0.062872   0.001658

                     21         22         23         24         25
                   -0.6960    -0.6937    -0.6797    -0.6781    -0.6618
                     A          A          A          A          A   
    1  C  1  S   -0.009916   0.158934  -0.143991   0.020832  -0.095466
    2  C  1  X   -0.069985   0.040085   0.005365   0.054761  -0.102443
    3  C  1  Y   -0.043582  -0.074764  -0.044508   0.038842   0.163433
    4  C  1  Z   -0.002065  -0.144791  -0.173033   0.017042  -0.002098
    5  C  2  S    0.127040   0.050665   0.137072  -0.093220  -0.077097
    6  C  2  X   -0.051518   0.080524  -0.012100  -0.047757  -0.007519
    7  C  2  Y   -0.071620  -0.051925   0.018325  -0.013993   0.182034
    8  C  2  Z    0.105377   0.109456  -0.128607   0.091743  -0.000963
    9  C  3  S   -0.143076   0.086731   0.130009   0.059835  -0.084934
   10  C  3  X   -0.091176  -0.026516  -0.013872  -0.043557  -0.178964
   11  C  3  Y   -0.016256  -0.109074   0.031692  -0.047456   0.108558
   12  C  3  Z   -0.111718   0.040346  -0.172379  -0.062887  -0.010070
   13  C  4  S   -0.156089  -0.149270  -0.087448   0.063274  -0.047335
   14  C  4  X    0.147655  -0.197529  -0.075537  -0.092957  -0.004155
   15  C  4  Y    0.000696   0.033177  -0.213950   0.150595   0.038499
   16  C  4  Z    0.001171  -0.005218   0.114503  -0.080363   0.202583
   17  C  5  S    0.173815  -0.057409  -0.085841  -0.065255  -0.039150
   18  C  5  X    0.038090   0.117688   0.245033   0.034927  -0.029708
   19  C  5  Y    0.066958   0.193059  -0.065656  -0.141902   0.027745
   20  C  5  Z   -0.015956   0.006335   0.131410   0.073695   0.212211
   21  C  6  S   -0.112258  -0.085082  -0.094397  -0.114424  -0.087679
   22  C  6  X   -0.068164  -0.050372   0.017526   0.027153  -0.195618
   23  C  6  Y    0.063406  -0.067886  -0.037172   0.053580  -0.005213
   24  C  6  Z    0.125931   0.103933  -0.079621  -0.143626   0.011911
   25  C  7  S    0.033972  -0.170022   0.006204   0.161402  -0.092400
   26  C  7  X   -0.043530  -0.069631  -0.027376  -0.016525  -0.160977
   27  C  7  Y    0.077347  -0.013892   0.049054  -0.044739  -0.081852
   28  C  7  Z   -0.010751  -0.099234  -0.018427  -0.166280  -0.000745
   29  C  8  S   -0.012444   0.189195   0.002800  -0.089964  -0.039155
   30  C  8  X    0.132011  -0.013135  -0.027381   0.208956  -0.048668
   31  C  8  Y   -0.178767  -0.040749   0.095357   0.141702  -0.018299
   32  C  8  Z    0.019223  -0.026932  -0.000286   0.159485   0.184610
   33  C  9  S    0.192311   0.112550   0.086759   0.067781  -0.034451
   34  C  9  X    0.006859   0.019333  -0.142160  -0.205681  -0.039495
   35  C  9  Y   -0.147077   0.250160  -0.086440   0.062487  -0.001630
   36  C  9  Z    0.010097  -0.006847   0.094661   0.116333  -0.195474
   37  C 10  S    0.001612  -0.221151   0.095354  -0.011938  -0.043178
   38  C 10  X    0.229499  -0.028940  -0.099347   0.101156  -0.027528
   39  C 10  Y    0.132177  -0.020284   0.231091   0.025818   0.045045
   40  C 10  Z    0.006643  -0.015361   0.157407  -0.019227  -0.186022
   41  C 11  S   -0.190504   0.090455   0.046946  -0.068075  -0.035355
   42  C 11  X   -0.113543  -0.147367   0.106020  -0.091546   0.024474
   43  C 11  Y    0.026544   0.081133   0.054511  -0.211923   0.039843
   44  C 11  Z   -0.023206  -0.003092   0.066853  -0.132305  -0.181699
   45  C 12  S   -0.200868   0.089006  -0.039469   0.096171  -0.045161
   46  C 12  X    0.067206   0.216142   0.139881  -0.098432  -0.014272
   47  C 12  Y   -0.068930  -0.133552   0.040505  -0.217841  -0.037120
   48  C 12  Z    0.006313   0.010838  -0.051505   0.137160  -0.196321
   49  C 13  S    0.037588  -0.194761  -0.110676  -0.001661  -0.042202
   50  C 13  X   -0.201376  -0.049365  -0.119778   0.135336   0.015170
   51  C 13  Y   -0.117740  -0.061931   0.237700   0.052870  -0.031169
   52  C 13  Z    0.003713   0.002456  -0.145764   0.010914  -0.210656
   53  C 14  S    0.160271   0.119024  -0.050011  -0.085332  -0.039752
   54  C 14  X   -0.000568   0.021904  -0.150455  -0.213758   0.047646
   55  C 14  Y    0.144208  -0.135016  -0.106504   0.024242  -0.005816
   56  C 14  Z    0.014343   0.017476  -0.078921  -0.128984  -0.195497
   57  C 15  S    0.105472  -0.053780   0.063341  -0.161905  -0.078204
   58  C 15  X   -0.005150  -0.077766   0.032047   0.028234  -0.087741
   59  C 15  Y    0.088914   0.013887  -0.026120   0.009539  -0.152176
   60  C 15  Z   -0.149358   0.045095   0.061642  -0.139980   0.002511
   61  C 16  S   -0.000106  -0.120972  -0.024637  -0.168148  -0.081633
   62  C 16  X    0.026101   0.082627  -0.028644  -0.016877   0.150492
   63  C 16  Y   -0.086913   0.033004   0.045848  -0.023350   0.088451
   64  C 16  Z    0.038390  -0.160611   0.005321   0.157573  -0.003691
   65  C 17  S    0.155684  -0.054703  -0.067759   0.129363  -0.084428
   66  C 17  X   -0.001750   0.093505   0.035909   0.040562   0.089786
   67  C 17  Y   -0.076412  -0.013483  -0.038678   0.019953   0.142651
   68  C 17  Z   -0.100551   0.064473  -0.056454   0.152847   0.000907
   69  C 18  S   -0.122212  -0.101383   0.077986   0.125200  -0.088637
   70  C 18  X    0.059573   0.046280   0.016916   0.031429   0.185990
   71  C 18  Y   -0.062962   0.086771  -0.042061   0.048764  -0.010066
   72  C 18  Z    0.102303   0.061740   0.102444   0.140949   0.001149
   73  C 19  S   -0.136052   0.049959  -0.131441  -0.050270  -0.088908
   74  C 19  X    0.080686   0.012882  -0.014682  -0.039668   0.168671
   75  C 19  Y   -0.018217   0.099207   0.045709  -0.038352  -0.093259
   76  C 19  Z   -0.151278   0.085201   0.154819   0.080128  -0.006758
   77  C 20  S   -0.005132   0.141223   0.163400  -0.005217  -0.081276
   78  C 20  X    0.113293  -0.052694   0.003976   0.044859   0.096526
   79  C 20  Y    0.055847   0.071614  -0.028052   0.030893  -0.175255
   80  C 20  Z    0.015277  -0.150613   0.171198  -0.021106   0.009931
   81  C 21  S    0.125294   0.103861  -0.123825   0.079954  -0.086834
   82  C 21  X    0.044979  -0.070621  -0.015714  -0.055683   0.009007
   83  C 21  Y    0.068689   0.039101   0.031651  -0.023697  -0.179562
   84  C 21  Z    0.136693   0.056699   0.128553  -0.092567  -0.003062
   85  C 22  S   -0.019367   0.232640   0.029939   0.101060  -0.039045
   86  C 22  X   -0.107661  -0.025565  -0.033681   0.233040   0.032217
   87  C 22  Y    0.232786   0.009336   0.101980   0.112481   0.024826
   88  C 22  Z   -0.023852   0.002904  -0.026215  -0.143845   0.189620
   89  C 23  S    0.205152  -0.117228   0.095464   0.026983  -0.036768
   90  C 23  X   -0.075699  -0.096171   0.210167   0.042944   0.041596
   91  C 23  Y   -0.107007  -0.205329  -0.089699  -0.141325  -0.018061
   92  C 23  Z   -0.003578   0.006112  -0.147225  -0.052872   0.186146
   93  C 24  S   -0.189324  -0.107521   0.079889  -0.051905  -0.038429
   94  C 24  X   -0.120770   0.204787  -0.050151  -0.060837   0.003694
   95  C 24  Y   -0.001958   0.016727  -0.201883   0.138339  -0.046672
   96  C 24  Z    0.005996   0.018524  -0.126298   0.088396   0.178166

                     26         27         28         29         30
                   -0.6124    -0.6006    -0.5906    -0.5892    -0.5866
                     A          A          A          A          A   
    1  C  1  S    0.039247  -0.092074  -0.096886  -0.013547  -0.037156
    2  C  1  X    0.284659   0.182431  -0.134770  -0.049383  -0.107536
    3  C  1  Y    0.164425   0.088657   0.236172  -0.000645   0.016823
    4  C  1  Z   -0.063589   0.074579   0.035258   0.053422   0.163283
    5  C  2  S   -0.083227   0.071737  -0.041966  -0.037786   0.037619
    6  C  2  X   -0.190664  -0.325852  -0.052793   0.052145  -0.102430
    7  C  2  Y    0.025091  -0.038494   0.166604   0.040248  -0.058633
    8  C  2  Z   -0.098261   0.035506  -0.017042  -0.046689   0.097412
    9  C  3  S   -0.004923   0.111972  -0.080559  -0.072196  -0.059115
   10  C  3  X   -0.200587   0.044525  -0.245207  -0.107303  -0.036605
   11  C  3  Y   -0.320431  -0.051797   0.168740  -0.019980   0.107670
   12  C  3  Z    0.004542   0.105103   0.010062  -0.202608  -0.159685
   13  C  4  S   -0.044560   0.039688  -0.016043   0.016626  -0.067818
   14  C  4  X   -0.017698   0.012250  -0.027710  -0.158825   0.181641
   15  C  4  Y   -0.049844   0.004547  -0.006525  -0.108185   0.021175
   16  C  4  Z    0.030485  -0.029250   0.139929  -0.001925  -0.035270
   17  C  5  S   -0.014077   0.053276  -0.058300   0.105695   0.074755
   18  C  5  X   -0.001503  -0.044814  -0.008756   0.246329  -0.007035
   19  C  5  Y    0.002397   0.001295   0.008339   0.036350  -0.218425
   20  C  5  Z    0.009486  -0.059792   0.234459   0.022808   0.049268
   21  C  6  S   -0.035928  -0.086861  -0.080210  -0.060901   0.021837
   22  C  6  X   -0.024861   0.007431  -0.237807  -0.075082   0.015770
   23  C  6  Y    0.330088  -0.171120  -0.034119   0.064692   0.109589
   24  C  6  Z    0.055112   0.083330   0.030479   0.236103  -0.096216
   25  C  7  S    0.083574   0.070797  -0.023790  -0.026727   0.007008
   26  C  7  X    0.109022  -0.129825  -0.133347  -0.020224   0.072862
   27  C  7  Y   -0.171237   0.262090   0.018407   0.056059  -0.094688
   28  C  7  Z    0.086504   0.025989  -0.024498  -0.046288   0.096384
   29  C  8  S    0.051933   0.042918  -0.011456   0.015203  -0.043379
   30  C  8  X   -0.035071  -0.001451  -0.014580   0.174064  -0.131598
   31  C  8  Y   -0.025576   0.011973   0.040281  -0.066042   0.168567
   32  C  8  Z   -0.019703  -0.012974   0.090916  -0.031114  -0.027119
   33  C  9  S   -0.030568  -0.040572  -0.047708   0.117615  -0.068893
   34  C  9  X    0.030087   0.034663   0.013130   0.220095  -0.015129
   35  C  9  Y    0.008462  -0.014223   0.037467  -0.080870  -0.192919
   36  C  9  Z   -0.031980  -0.000593  -0.186249  -0.022844   0.005474
   37  C 10  S    0.020635  -0.037682  -0.061665  -0.005481   0.085961
   38  C 10  X   -0.023968   0.017154  -0.020182   0.151516   0.218249
   39  C 10  Y    0.030044  -0.018249  -0.027009  -0.065621   0.007097
   40  C 10  Z    0.009623   0.010030  -0.213634  -0.005252  -0.045537
   41  C 11  S    0.069577   0.005364  -0.009558   0.112656  -0.073395
   42  C 11  X    0.029649   0.020682  -0.020636  -0.201109  -0.146344
   43  C 11  Y    0.044766  -0.023413   0.011573  -0.098846   0.140512
   44  C 11  Z    0.030121  -0.001266  -0.026332  -0.029263   0.043926
   45  C 12  S   -0.068498   0.003862   0.000911   0.003442   0.083932
   46  C 12  X    0.021792   0.014588  -0.036278  -0.030749  -0.096763
   47  C 12  Y    0.038739   0.006762  -0.007504   0.139927   0.204248
   48  C 12  Z   -0.039271  -0.006816   0.034801   0.057077  -0.060607
   49  C 13  S   -0.023197   0.044963   0.051108   0.125115  -0.067941
   50  C 13  X   -0.015529   0.015879  -0.004171  -0.020889   0.156569
   51  C 13  Y    0.023775  -0.016467  -0.046969   0.246583   0.040418
   52  C 13  Z   -0.018797   0.001566   0.228505   0.011746   0.047935
   53  C 14  S    0.017977   0.045125   0.031494   0.013752   0.117949
   54  C 14  X    0.044200   0.012105   0.034735  -0.102466  -0.080021
   55  C 14  Y    0.005000  -0.000010   0.037591  -0.118772  -0.171107
   56  C 14  Z    0.027653  -0.003845   0.191166   0.044055   0.000847
   57  C 15  S   -0.112218  -0.016563   0.019469  -0.013276  -0.052011
   58  C 15  X   -0.032696   0.303548   0.024516   0.049245   0.017622
   59  C 15  Y   -0.019810  -0.186601   0.032519   0.011712  -0.108794
   60  C 15  Z    0.098775   0.019969  -0.029552   0.018786   0.197387
   61  C 16  S   -0.081107  -0.070499   0.040116  -0.078614  -0.036698
   62  C 16  X    0.087663  -0.130548  -0.140198   0.033536   0.076739
   63  C 16  Y   -0.141323   0.304592   0.005482   0.098025  -0.063584
   64  C 16  Z   -0.077051  -0.060784   0.032422  -0.173989  -0.147617
   65  C 17  S    0.099658  -0.003871  -0.010666  -0.077869   0.030418
   66  C 17  X   -0.007498   0.337575   0.018554   0.091289   0.044477
   67  C 17  Y   -0.021749  -0.193616   0.026253   0.057595  -0.100519
   68  C 17  Z   -0.095903   0.009616   0.003999   0.207159  -0.123953
   69  C 18  S    0.055626   0.087879   0.093062  -0.022852  -0.051757
   70  C 18  X   -0.025884   0.007173  -0.242401  -0.010207   0.043547
   71  C 18  Y    0.308142  -0.197607  -0.014103   0.041268   0.081200
   72  C 18  Z   -0.074313  -0.065046  -0.052185   0.023691   0.151192
   73  C 19  S    0.004591  -0.121215   0.085363  -0.004978   0.031092
   74  C 19  X   -0.197115   0.053281  -0.251658  -0.048392  -0.002116
   75  C 19  Y   -0.310759  -0.013052   0.159626  -0.048364   0.110667
   76  C 19  Z    0.006116  -0.108341   0.032793  -0.080554   0.087360
   77  C 20  S   -0.037644   0.089463   0.107380  -0.059117   0.028175
   78  C 20  X    0.275087   0.152393  -0.137765  -0.025039  -0.103061
   79  C 20  Y    0.146095   0.084997   0.255563  -0.064289   0.016129
   80  C 20  Z    0.057237  -0.079601  -0.048014   0.239050  -0.120791
   81  C 21  S    0.081466  -0.072921   0.044413  -0.029386  -0.035519
   82  C 21  X   -0.174752  -0.314053  -0.054960   0.083114  -0.107598
   83  C 21  Y    0.016311  -0.033961   0.183555  -0.025086  -0.055867
   84  C 21  Z    0.096741  -0.048966   0.051869  -0.220010  -0.147877
   85  C 22  S   -0.053652  -0.031119  -0.000815   0.097466   0.096992
   86  C 22  X   -0.024861  -0.036695   0.005840  -0.070262  -0.181473
   87  C 22  Y   -0.026679  -0.002697   0.046595  -0.208169   0.126966
   88  C 22  Z    0.013394   0.029774  -0.087706   0.016278   0.001909
   89  C 23  S   -0.001290  -0.054007   0.048114   0.025117  -0.060370
   90  C 23  X    0.006128  -0.038535   0.031238  -0.067944  -0.093962
   91  C 23  Y   -0.000186   0.025216  -0.006691   0.181214  -0.200907
   92  C 23  Z   -0.012553   0.049147  -0.229624  -0.027398  -0.034384
   93  C 24  S    0.053359  -0.030440   0.012063   0.102309   0.082826
   94  C 24  X   -0.006956  -0.004422  -0.041598  -0.124753   0.221980
   95  C 24  Y   -0.050810   0.019486  -0.046977   0.218799   0.090870
   96  C 24  Z   -0.028321   0.023556  -0.141930   0.000883   0.030572

                     31         32         33         34         35
                   -0.5847    -0.5844    -0.5527    -0.5464    -0.5450
                     A          A          A          A          A   
    1  C  1  S    0.062256  -0.031998  -0.005539  -0.022602   0.045735
    2  C  1  X   -0.030563  -0.038969   0.209135   0.122637  -0.002123
    3  C  1  Y   -0.123910   0.110827   0.119754   0.059528   0.120543
    4  C  1  Z   -0.183167  -0.010608  -0.000765  -0.079409   0.194498
    5  C  2  S    0.090245  -0.065900   0.012513   0.027915   0.051953
    6  C  2  X    0.048866  -0.000421  -0.276245   0.033276  -0.108483
[...]
   48  C 12  Z   -0.270223   0.037346  -0.062936   0.081457  -0.249672
   49  C 13  S   -0.011317   0.022244  -0.013182   0.022932   0.024814
   50  C 13  X    0.045468  -0.083919   0.004133   0.021031  -0.028168
   51  C 13  Y   -0.063410   0.161695   0.024183  -0.008457   0.095718
   52  C 13  Z   -0.102632   0.253516   0.061032  -0.080997   0.199707
   53  C 14  S    0.013586   0.021094   0.013000  -0.023014   0.015167
   54  C 14  X   -0.118452  -0.158195   0.020021  -0.017810  -0.025411
   55  C 14  Y    0.010579  -0.003020  -0.015520  -0.014107  -0.032083
   56  C 14  Z    0.167845   0.215347  -0.062655   0.080676   0.049821
   57  C 15  S    0.027099   0.001283  -0.048616   0.052410  -0.036191
   58  C 15  X    0.099455  -0.030008  -0.112645   0.161495  -0.145931
   59  C 15  Y    0.180002  -0.012577  -0.243322   0.209080  -0.205006
   60  C 15  Z    0.091113  -0.015874  -0.063743   0.059852  -0.038958
   61  C 16  S   -0.026906  -0.001759   0.048636   0.052071   0.037419
   62  C 16  X    0.176974   0.033631  -0.243814  -0.208184  -0.213516
   63  C 16  Y    0.094557   0.041475  -0.112701  -0.160554  -0.147888
   64  C 16  Z    0.088279   0.026725  -0.063819  -0.059734  -0.040637
   65  C 17  S   -0.027027  -0.001348   0.048737  -0.052158  -0.036490
   66  C 17  X    0.099148  -0.029964  -0.112674   0.160626   0.146872
   67  C 17  Y    0.179907  -0.012571  -0.243742   0.208271   0.206345
   68  C 17  Z   -0.091025   0.015844   0.063796  -0.059817  -0.039490
   69  C 18  S   -0.012094  -0.024332  -0.048722   0.052236   0.006241
   70  C 18  X    0.123606   0.165979   0.267484  -0.261097  -0.044278
   71  C 18  Y   -0.015114   0.013386   0.024124   0.035043   0.039669
   72  C 18  Z   -0.058976  -0.071329  -0.064068   0.059968   0.004728
   73  C 19  S   -0.011675  -0.024205  -0.048544  -0.052105  -0.028274
   74  C 19  X    0.038597   0.174497   0.219399   0.243676   0.158998
   75  C 19  Y   -0.044996  -0.096303  -0.154715  -0.100174  -0.113170
   76  C 19  Z    0.020697   0.089869   0.063517   0.059620   0.032553
   77  C 20  S    0.014562  -0.022385   0.048732  -0.052394   0.030151
   78  C 20  X   -0.056447   0.088755  -0.155055   0.100667  -0.117323
   79  C 20  Y    0.059752  -0.166775   0.220171  -0.244456   0.171695
   80  C 20  Z    0.031740  -0.086450   0.064459  -0.060250   0.034844
   81  C 21  S    0.014936  -0.022197   0.048688   0.052262  -0.009014
   82  C 21  X   -0.013493  -0.014876   0.024087  -0.035386   0.039777
   83  C 21  Y    0.143041  -0.147701   0.268293   0.261480  -0.063955
   84  C 21  Z   -0.067166   0.062773  -0.064166  -0.059696   0.007624
   85  C 22  S    0.024525   0.004372  -0.013032  -0.023157   0.040223
   86  C 22  X   -0.165858  -0.036290  -0.009755  -0.022284  -0.112715
   87  C 22  Y   -0.097087  -0.033509  -0.023528   0.003573  -0.057445
   88  C 22  Z   -0.263388  -0.071404  -0.062612  -0.079875  -0.256301
   89  C 23  S    0.008528   0.023506   0.013075   0.023047  -0.022026
   90  C 23  X   -0.043244  -0.168296   0.025271   0.008202   0.091010
   91  C 23  Y    0.034875   0.089451   0.003493  -0.021156  -0.023713
   92  C 23  Z   -0.070617  -0.263196   0.062415   0.079937   0.185604
   93  C 24  S   -0.015980   0.018958  -0.013188  -0.022934  -0.018352
   94  C 24  X    0.010626   0.003708  -0.015736   0.014034  -0.031093
   95  C 24  Y   -0.137827   0.142399   0.019310   0.018316  -0.036041
   96  C 24  Z    0.193449  -0.192431  -0.061335  -0.081191   0.070611

                     51         52         53         54         55
                   -0.1042    -0.0545    -0.0545    -0.0483    -0.0443
                     A          A          A          A          A   
    1  C  1  S   -0.024423  -0.005749   0.087556   0.188234   0.102248
    2  C  1  X   -0.053494  -0.036701   0.087548   0.098602   0.069134
    3  C  1  Y    0.165806   0.005992  -0.076269  -0.145940  -0.116096
    4  C  1  Z   -0.025119  -0.055188   0.051386   0.043826   0.031136
    5  C  2  S    0.037907  -0.089270   0.001832  -0.188346  -0.047437
    6  C  2  X    0.001524   0.039159  -0.026549   0.012565  -0.059822
    7  C  2  Y   -0.260799   0.112037  -0.017763   0.175110   0.105695
    8  C  2  Z   -0.042260   0.055440  -0.052424   0.043222   0.072022
    9  C  3  S   -0.026826   0.042208  -0.077185  -0.187998  -0.079400
   10  C  3  X   -0.179007   0.035754  -0.067618  -0.145085  -0.071858
   11  C  3  Y    0.062622  -0.016745   0.093212   0.098296   0.061988
   12  C  3  Z    0.027971   0.017751   0.074144   0.043516   0.009141
   13  C  4  S    0.036100   0.130363  -0.061407   0.056703   0.093701
   14  C  4  X    0.010698  -0.050382  -0.087022   0.004704  -0.074987
   15  C  4  Y   -0.124632  -0.154620   0.116387  -0.097583  -0.130604
   16  C  4  Z   -0.255117  -0.181983   0.192973   0.043090  -0.174729
   17  C  5  S   -0.033989  -0.012261   0.143394   0.056940   0.065889
   18  C  5  X   -0.070237   0.070623   0.166021   0.086713   0.073480
   19  C  5  Y    0.065381   0.075452  -0.095636  -0.046264   0.073556
   20  C  5  Z    0.189084  -0.074994  -0.254659   0.041439   0.027505
   21  C  6  S    0.038450  -0.071958  -0.049619   0.188077   0.015181
   22  C  6  X    0.265457  -0.081841  -0.076073   0.175039   0.058956
   23  C  6  Y   -0.004800  -0.017872  -0.043733   0.012665  -0.054513
   24  C  6  Z    0.042624  -0.016840  -0.073757   0.043009   0.056074
   25  C  7  S   -0.010971   0.044223   0.076032  -0.189020   0.124652
   26  C  7  X   -0.081371   0.081412   0.086243  -0.159101   0.149676
   27  C  7  Y   -0.007953  -0.001774   0.026075  -0.077906   0.135608
   28  C  7  Z    0.014395  -0.072531  -0.021984   0.044490  -0.080782
   29  C  8  S   -0.002091  -0.117207  -0.082572   0.058462  -0.158835
   30  C  8  X   -0.010728  -0.127757  -0.109046   0.084526  -0.122963
   31  C  8  Y   -0.043874  -0.132375   0.037540   0.053639  -0.100697
   32  C  8  Z    0.066092   0.257674   0.061768   0.039577   0.147824
   33  C  9  S    0.037261   0.074531   0.122057  -0.056671  -0.057118
   34  C  9  X    0.127677   0.064214   0.182121  -0.097493  -0.099352
   35  C  9  Y   -0.008834   0.090103  -0.045012   0.003947  -0.090435
   36  C  9  Z    0.259454   0.045864   0.260416   0.042836  -0.151362
   37  C 10  S   -0.031994   0.068486  -0.125304  -0.057690  -0.100817
   38  C 10  X   -0.063545  -0.009958  -0.121444  -0.046423   0.043439
   39  C 10  Y    0.063030  -0.150222   0.098926   0.087776   0.103986
   40  C 10  Z   -0.173084   0.203514  -0.168737   0.039923  -0.020661
   41  C 11  S   -0.005353  -0.143715   0.003087  -0.057746   0.157185
   42  C 11  X    0.048064   0.089550   0.104388   0.053506  -0.081997
   43  C 11  Y    0.019626   0.168222  -0.019607   0.083490  -0.144366
   44  C 11  Z   -0.086136  -0.248597  -0.092249   0.041641   0.172246
   45  C 12  S   -0.005273  -0.143986   0.003643  -0.057753   0.157505
   46  C 12  X   -0.048402  -0.090065  -0.104612  -0.053345   0.082610
   47  C 12  Y   -0.019636  -0.167595   0.019669  -0.083401   0.144523
   48  C 12  Z   -0.086535  -0.248803  -0.091415   0.041545   0.172172
   49  C 13  S   -0.032146   0.068994  -0.126011  -0.057722  -0.100914
   50  C 13  X    0.063267   0.010314   0.121281   0.046556  -0.043674
   51  C 13  Y   -0.062807   0.150470  -0.098975  -0.088080  -0.104049
   52  C 13  Z   -0.173511   0.203723  -0.170016   0.039961  -0.020396
   53  C 14  S    0.037509   0.074433   0.123120  -0.056960  -0.057497
   54  C 14  X   -0.127089  -0.064075  -0.182226   0.098006   0.099487
   55  C 14  Y    0.008297  -0.090251   0.044496  -0.004022   0.090715
   56  C 14  Z    0.259902   0.045265   0.261435   0.042767  -0.151097
   57  C 15  S   -0.014145   0.080366  -0.038466   0.188929  -0.115617
   58  C 15  X   -0.020079   0.013732  -0.022448   0.077741  -0.141985
   59  C 15  Y   -0.098589   0.116773  -0.026358   0.158673  -0.140047
   60  C 15  Z   -0.017671   0.072938   0.022045   0.043923  -0.087060
   61  C 16  S   -0.011080   0.044517   0.076291  -0.189466   0.123692
   62  C 16  X    0.081664  -0.081982  -0.086967   0.159668  -0.148621
   63  C 16  Y    0.008169   0.001975  -0.026138   0.077976  -0.134908
   64  C 16  Z    0.014398  -0.072498  -0.021849   0.044459  -0.080497
   65  C 17  S   -0.014039   0.080481  -0.038517   0.189115  -0.114779
   66  C 17  X    0.019792  -0.013403   0.022677  -0.077915   0.141103
   67  C 17  Y    0.098238  -0.117316   0.026668  -0.158903   0.139387
   68  C 17  Z   -0.017532   0.072793   0.022136   0.043929  -0.086917
   69  C 18  S    0.038384  -0.072429  -0.050594   0.188715   0.016192
   70  C 18  X   -0.264664   0.082660   0.076484  -0.175566  -0.060040
   71  C 18  Y    0.004712   0.017767   0.043764  -0.012682   0.054392
   72  C 18  Z    0.042715  -0.017047  -0.074304   0.043418   0.056485
   73  C 19  S   -0.026688   0.042874  -0.076448  -0.188440  -0.080309
   74  C 19  X    0.178767  -0.036585   0.067167   0.145904   0.073002
   75  C 19  Y   -0.062655   0.017434  -0.093341  -0.098736  -0.062440
   76  C 19  Z    0.027687   0.017677   0.073548   0.043385   0.009412
   77  C 20  S   -0.024409  -0.006639   0.087757   0.188599   0.102542
   78  C 20  X    0.053170   0.037211  -0.086983  -0.098736  -0.069506
   79  C 20  Y   -0.165341  -0.006830   0.076092   0.146031   0.115909
   80  C 20  Z   -0.025157  -0.055614   0.051857   0.044153   0.031353
   81  C 21  S    0.037904  -0.088588   0.001363  -0.188386  -0.047022
   82  C 21  X   -0.001537  -0.039252   0.026432  -0.012315   0.060332
   83  C 21  Y    0.260806  -0.111337   0.017901  -0.175366  -0.105590
   84  C 21  Z   -0.042156   0.055145  -0.052125   0.043153   0.071689
   85  C 22  S   -0.002103  -0.117335  -0.082061   0.058607  -0.158749
   86  C 22  X    0.010693   0.128557   0.109525  -0.084719   0.122762
   87  C 22  Y    0.043573   0.132046  -0.037513  -0.053949   0.100114
   88  C 22  Z    0.065827   0.257724   0.061064   0.039751   0.148114
   89  C 23  S   -0.033880  -0.012327   0.142560   0.057113   0.066449
   90  C 23  X    0.070483  -0.070528  -0.165905  -0.086901  -0.074174
   91  C 23  Y   -0.065490  -0.075291   0.095801   0.046406  -0.072974
   92  C 23  Z    0.188287  -0.075485  -0.253481   0.041640   0.027073
   93  C 24  S    0.035867   0.129970  -0.060528   0.056707   0.093225
   94  C 24  X   -0.011392   0.049842   0.087465  -0.004567   0.074565
   95  C 24  Y    0.124935   0.154812  -0.116109   0.097604   0.130808
   96  C 24  Z   -0.254524  -0.182097   0.191838   0.043157  -0.174636

                     56         57         58
                   -0.0442    -0.0390    -0.0389
                     A          A          A   
    1  C  1  S   -0.074596  -0.132193  -0.174217
    2  C  1  X   -0.018709  -0.045228  -0.151168
    3  C  1  Y    0.156244   0.187915   0.153143
    4  C  1  Z   -0.082359  -0.047840  -0.048385
    5  C  2  S    0.117187   0.200577   0.087697
    6  C  2  X    0.014392  -0.039884   0.066306
    7  C  2  Y   -0.166720  -0.245684  -0.130504
    8  C  2  Z   -0.051889  -0.058508  -0.035516
    9  C  3  S   -0.099864   0.024391   0.217404
   10  C  3  X   -0.181216  -0.030173   0.240023
   11  C  3  Y    0.036504  -0.071629  -0.140171
   12  C  3  Z    0.088431   0.001255  -0.068142
   13  C  4  S   -0.130035  -0.064673  -0.028314
   14  C  4  X   -0.072343  -0.011075   0.011102
   15  C  4  Y    0.105555   0.140673   0.063895
   16  C  4  Z    0.069859  -0.042634  -0.009414
   17  C  5  S    0.146120  -0.007971  -0.069506
   18  C  5  X    0.129582  -0.020738  -0.134751
   19  C  5  Y   -0.107461  -0.005295   0.073390
   20  C  5  Z   -0.186209  -0.012656  -0.042281
   21  C  6  S    0.125898   0.084358  -0.202002
   22  C  6  X    0.189585   0.087865  -0.264547
   23  C  6  Y   -0.029581   0.074270   0.020282
   24  C  6  Z    0.068095   0.018059  -0.065783
   25  C  7  S   -0.018949  -0.175716   0.130280
   26  C  7  X   -0.016787  -0.185017   0.161760
   27  C  7  Y    0.042205  -0.150113   0.015308
   28  C  7  Z   -0.036169   0.059507  -0.033530
   29  C  8  S   -0.016088   0.056094  -0.042573
   30  C  8  X   -0.102045   0.110356  -0.071210
   31  C  8  Y    0.057478   0.058840  -0.058234
   32  C  8  Z    0.117192   0.030274  -0.031033
   33  C  9  S   -0.148760  -0.027260   0.065074
   34  C  9  X   -0.135711  -0.058002   0.143687
   35  C  9  Y    0.051512   0.015576   0.000971
   36  C  9  Z   -0.110649   0.023778  -0.036040
   37  C 10  S    0.123301   0.041944   0.056549
   38  C 10  X    0.122469   0.054882   0.049252
   39  C 10  Y   -0.105989  -0.078137  -0.112445
   40  C 10  Z    0.186286  -0.019795  -0.038343
   41  C 11  S    0.025462   0.070649  -0.009114
   42  C 11  X   -0.081248  -0.083357  -0.000864
   43  C 11  Y    0.067947  -0.129137   0.026072
   44  C 11  Z   -0.074601  -0.042822  -0.003133
   45  C 12  S    0.024526  -0.070328   0.008168
   46  C 12  X    0.081138  -0.082702  -0.001418
   47  C 12  Y   -0.067721  -0.129253   0.025073
   48  C 12  Z   -0.076037   0.042913   0.001306
   49  C 13  S    0.124720  -0.041588  -0.055836
   50  C 13  X   -0.122651   0.054235   0.049539
   51  C 13  Y    0.106759  -0.077838  -0.111521
   52  C 13  Z    0.187733   0.020724   0.038727
   53  C 14  S   -0.150028   0.026440  -0.064514
   54  C 14  X    0.136063  -0.056961   0.142789
   55  C 14  Y   -0.051216   0.015533   0.000255
   56  C 14  Z   -0.112088  -0.024758   0.036840
   57  C 15  S   -0.049662   0.217069  -0.027808
   58  C 15  X    0.006338   0.119017  -0.092707
   59  C 15  Y   -0.054090   0.245279  -0.011188
   60  C 15  Z    0.014534   0.066261  -0.016970
   61  C 16  S   -0.019937   0.175811  -0.130056
   62  C 16  X    0.017376  -0.185264   0.161611
   63  C 16  Y   -0.041855  -0.150480   0.015462
   64  C 16  Z   -0.035749  -0.059842   0.033099
   65  C 17  S   -0.049388  -0.217303   0.027862
   66  C 17  X   -0.006988   0.119074  -0.093087
   67  C 17  Y    0.053153   0.245644  -0.011593
   68  C 17  Z    0.014497  -0.066271   0.017760
   69  C 18  S    0.126503  -0.083740   0.201421
   70  C 18  X   -0.189195   0.086738  -0.263552
   71  C 18  Y    0.028887   0.074510   0.020236
   72  C 18  Z    0.068846  -0.017499   0.065802
   73  C 19  S   -0.098842  -0.024971  -0.216686
   74  C 19  X    0.181260  -0.029319   0.239934
   75  C 19  Y   -0.035801  -0.071848  -0.140112
   76  C 19  Z    0.087635  -0.001028   0.067844
   77  C 20  S   -0.076008   0.132276   0.173482
   78  C 20  X    0.019215  -0.045012  -0.150504
   79  C 20  Y   -0.156866   0.187415   0.152091
   80  C 20  Z   -0.083225   0.047679   0.048388
   81  C 21  S    0.117575  -0.200461  -0.087106
   82  C 21  X   -0.014774  -0.039741   0.066090
   83  C 21  Y    0.167917  -0.245730  -0.129766
   84  C 21  Z   -0.051529   0.058549   0.034838
   85  C 22  S   -0.014855  -0.056680   0.042389
   86  C 22  X    0.101746   0.111106  -0.070635
   87  C 22  Y   -0.058004   0.059172  -0.058275
   88  C 22  Z    0.116248  -0.029190   0.031604
   89  C 23  S    0.144944   0.008618   0.069576
   90  C 23  X   -0.129197  -0.021301  -0.134882
   91  C 23  Y    0.107494  -0.005356   0.073540
   92  C 23  Z   -0.185048   0.012302   0.041318
   93  C 24  S   -0.129216   0.064689   0.027931
   94  C 24  X    0.072687  -0.010480   0.011323
   95  C 24  Y   -0.105706   0.141107   0.063220
   96  C 24  Z    0.068400   0.042026   0.009836

     ----------------------------------------------------------------
     PROPERTY VALUES FOR THE RHF   SELF-CONSISTENT FIELD WAVEFUNCTION
     ----------------------------------------------------------------

                    -------------
                    MOPAC CHARGES
                    -------------
         ATOM NO.   TYPE          CHARGE        ATOM  ELECTRON DENSITY
           1         C             -0.0040          4.0040
           2         C             -0.0042          4.0042
           3         C             -0.0039          4.0039
           4         C              0.0043          3.9957
           5         C              0.0041          3.9959
           6         C             -0.0040          4.0040
           7         C             -0.0040          4.0040
           8         C              0.0039          3.9961
           9         C              0.0039          3.9961
          10         C              0.0038          3.9962
          11         C              0.0039          3.9961
          12         C              0.0041          3.9959
          13         C              0.0040          3.9960
          14         C              0.0042          3.9958
          15         C             -0.0041          4.0041
          16         C             -0.0040          4.0040
          17         C             -0.0039          4.0039
          18         C             -0.0042          4.0042
          19         C             -0.0040          4.0040
          20         C             -0.0038          4.0038
          21         C             -0.0040          4.0040
          22         C              0.0039          3.9961
          23         C              0.0038          3.9962
          24         C              0.0040          3.9960

          ---------------------
          ELECTROSTATIC MOMENTS
          ---------------------

 POINT   1           X           Y           Z (ANGS)      CHARGE
                 0.000000    0.000000    0.000000        0.00 (A.U.)
         DX          DY          DZ         /D/  (DEBYE)
     0.002142    0.002366    0.000037    0.003192
 ...... END OF PROPERTY EVALUATION ......
 CPU     0: STEP CPU TIME=     0.06 TOTAL CPU TIME=          1.3 (      0.0 MIN)
 TOTAL WALL CLOCK TIME=          1.3 SECONDS, CPU UTILIZATION IS    98.11%
  $VIB   
          IVIB=   0 IATOM=   0 ICOORD=   0 E=     -103.4005536286
 -2.689201513E-04-1.244503660E-05 9.826972219E-05-2.185159857E-04-1.609228620E-04
 -9.010937540E-06 2.378649693E-04 4.043060588E-04-1.063617992E-04 3.806175178E-04
 -1.696701153E-04-1.762954103E-04 1.037338380E-04-2.609716653E-04 4.744362173E-05
 -1.854835209E-04-1.723102281E-04-2.055332640E-04 4.611695127E-05-2.053441769E-05
  1.268990814E-04 2.591976057E-05 3.500511281E-05-1.383555907E-04-1.443363410E-04
  1.467607143E-04-1.104312387E-04 2.315144185E-04-2.759180104E-05-9.079794735E-05
  1.456107762E-04 1.314779603E-04 2.718808638E-04 1.680252813E-04-1.818199154E-04
  2.609049680E-04-2.726024169E-04 1.714831033E-04-5.166782550E-05-2.105959649E-04
  2.097949370E-04 1.232028278E-04-1.801108175E-05 2.126061154E-04-2.055042944E-04
 -4.154275865E-04 3.473747800E-04 7.454070656E-05 2.023043419E-04-4.743507730E-04
 -7.788562488E-05-1.176301790E-04-3.746262256E-04 6.417576632E-05 5.936901286E-06
 -1.426558507E-04-1.824016443E-04 1.965229152E-04 1.864938657E-04 2.577157522E-04
  4.111705371E-05 1.831650082E-05 1.326629619E-04 1.016343617E-05 1.771245456E-04
 -1.750305399E-04-9.634849272E-05 1.068397305E-04 4.295678117E-05 1.524235595E-04
 -1.496845338E-04 2.862306366E-05
  2.142448402E-03 2.365731533E-03 3.682670074E-05
 ......END OF GEOMETRY SEARCH......
 CPU     0: STEP CPU TIME=     0.02 TOTAL CPU TIME=          1.3 (      0.0 MIN)
 TOTAL WALL CLOCK TIME=          1.3 SECONDS, CPU UTILIZATION IS    98.33%
                580000  WORDS OF DYNAMIC MEMORY USED
 EXECUTION OF GAMESS TERMINATED NORMALLY 21:02:02 22-MAY-2023    
 DDI: 263640 bytes (0.3 MB / 0 MWords) used by master data server.

 ----------------------------------------
 CPU timing information for all processes
 ========================================
 0: 0.781250 + 0.656250 = 1.437500
 1: 0.890625 + 0.046875 = 0.937500
 2: 0.250000 + 0.250000 = 0.500000
 3: 0.156250 + 0.171875 = 0.328125
 ----------------------------------------
           Disk usage (in bytes)       
 ========================================
 ----------------------------------------
            Local date and time          
 ========================================
22.05.2023 - 21:02:02,17                          
