          *******************************************************
          *                                                     *
          *          GAMESS VERSION = 30 SEP 2022 (R2)          *
          *                                                     *
          *              doi.org/10.1063/5.0005188              *
          *                                                     *
          *************** 64 BIT WINDOWS VERSION ****************

  GAMESS HAS BEEN MADE POSSIBLE WITH IMPORTANT CONTRIBUTIONS FROM
  THE FOLLOWING INDIVIDUALS (IN ALPHABETICAL ORDER):

     IVANA ADAMOVIC, CHRISTINE AIKENS, TOMOKO AKAMA,
     MELISA ALKAN, YURI ALEXEEV, YURIKO AOKI, POOJA ARORA,
     TOSHIO ASADA, ANDREY ASADCHEV, KIM K. BALDRIDGE,
     PRADIPTA BANDYOPADHYAY, TAYLOR A. BARNES, MARIA BARYSZ,
     ROB BELL, JONATHAN BENTZ, COLLEEN BERTONI,
     JERRY A. BOATZ, BRETT BODE, KURT BRORSEN, KURT R. BRORSEN,
     LAIMUTIS BYTAUTAS, CALEB CARLIN, LAURA CARRINGTON,
     GALINA CHABAN, BENOIT CHAMPAGNE, WEI CHEN, MAHITO CHIBA,
     DAN CHIPMAN, CHEOL HO CHOI, TANNER CULPITT,
     DIPAYAN DATTA, PAUL DAY, ALBERT DEFUSCO,
     NUWAN DESILVA, J. EMILIANO DEUSTUA,
     TIM DUDLEY, MICHEL DUPUIS, STEVEN T. ELBERT,
     DMITRI FEDOROV, KATHERINE FERRERAS, MICHAEL FILATOV,
     ALEX FINDLATER,GRAHAM FLETCHER, MARK FREITAG,
     CHRISTIAN FRIEDL, DAVID GARMER, 
     IGOR S. GERASIMOV, KURT GLAESEMANN,
     MARK S. GORDON, JEFFREY GOUR, FENG LONG GU,
     EMILIE B. GUIDEZ, ANASTASIA GUNINA, SHARON HAMMES-SCHIFFER,
     MASATAKE HARUTA, KIMIHIKO HIRAO, YASUHIRO IKABATA,
     TZVETELIN IORDANOV, STEPHAN IRLE, KAZUYA ISHIMURA,
     JOE IVANIC, FRANK JENSEN, JAN H. JENSEN, VISVALDAS KAIRYS,
     MUNEAKI KAMIYA, MICHIO KATOUDA, NAOAKI KAWAKAMI, DAN KEMP,
     BERNARD KIRTMAN, KAZUO KITAURA, MARIUSZ KLOBUKOWSKI,
     MASATO KOBAYASHI, KONSTANTIN KOMAROV, PRAKASHAN KORAMBATH,
     JACEK KORCHOWIEC, SHIRO KOSEKI, KAROL KOWALSKI,
     JIMMY KROMANN, STANISLAW KUCHARSKI, HENRY KURTZ,
     SAROM SOK LEANG, SEUNGHOON LEE, HUI LI, SHUHUA LI, WEI LI,
     JESSE LUTZ, ALEKSANDR O. LYKHIN, MARCIN MAKOWSKI,
     JOANI MATO, NIKITA MATSUNAGA, BENEDETTA MENNUCCI,
     GRANT MERRILL, NORIYUKI MINEZAWA, VLADIMIR MIRONOV,
     EISAKU MIYOSHI, JOHN A. MONTGOMERY JR., HIROTOSHI MORI,
     JONATHAN MULLIN, MONIKA MUSIAL, SHIGERU NAGASE,
     TAKESHI NAGATA, HIROMI NAKAI, TAKAHITO NAKAJIMA,
     YUYA NAKAJIMA, HARUYUKI NAKANO, HIROYA NAKATA, SEAN NEDD,
     HEATHER NETZLOFF, KIET A. NGUYEN, YOSHIO NISHIMOTO,
     BOSILJKA NJEGIC, RYAN OLSON, MIKE PAK, ROBERTO PEVERATI,
     BUU PHAM, PIOTR PIECUCH, ANNA POMOGAEVA, DAVID POOLE,
     SPENCER PRUITT, OLIVIER QUINET, LUKE ROSKOP,
     KLAUS RUEDENBERG, ANDREW SAND, TOSAPORN SATTASATHUCHANA,
     NOZOMI SAWADA, MICHAEL W. SCHMIDT, PATRICK E. SCHNEIDER,
     JUNJI SEINO, PRACHI SHARMA, JUN SHEN, JIM SHOEMAKER,
     YINAN SHU, DEJUN SI, JONATHAN SKONE, LYUDMILA SLIPCHENKO,
     TONY SMITH, JIE SONG, MARK SPACKMAN, CASPER STEINMANN,
     WALT STEVENS, PEIFENG SU, SHUJUN SU, CHET SWALINA,
     CHINAMI TAKASHIMA, TETSUYA TAKETSUGU, ZHEN TAO,
     NANDUN THELLAMUREGE, SEIKEN TOKURA, JACOPO TOMASI,
     TSUGUKI TOUMA, TAKAO TSUNEDA, HIROAKI UMEDA,
     JORGE LUIS GALVEZ VALLEJO, YALI WANG, SIMON WEBB,
     AARON WEST, THERESA L. WINDUS, MARTA WLOCH,
     PENG XU, KIYOSHI YAGI, SUSUMU YANAGISAWA, YANG YANG,
     SOOHAENG YOO, TAKESHI YOSHIKAWA, FEDERICO ZAHARIEV,
     TOBY ZENG

  WHO ARE SUPPORTED BY THEIR INSTITUTION/UNIVERSITY/COMPANY/GROUP
  (IN ALPHABETICAL ORDER):

     EP ANALYTICS,
     FACULTES UNIVERSITAIRES NOTRE-DAME DE LA PAIX,
     INSTITUTE FOR MOLECULAR SCIENCE, IOWA STATE UNIVERSITY,
     JACKSON STATE UNIVERSITY, JOHANNES KEPLER UNIVERSITY LINZ,
     KYUNGPOOK NATIONAL UNIVERSITY
     KYUSHU UNIVERSITY, MICHIGAN STATE UNIVERSITY,
     MIE UNIVERSITY, THE MOLECULAR SCIENCES SOFTWARE INSTITUTE,
     MOSCOW STATE UNIVERSITY,
     N. COPERNICUS UNIVERSITY, NAGOYA UNIVERSITY,
     NANJING UNIVERSITY, NAT. INST. OF ADVANCED INDUSTRIAL
     SCIENCE AND TECHNOLOGY, NATIONAL INST. OF STANDARDS AND
     TECHNOLOGY, NESMEYANOV INSTITUTE OF ORGANOELEMENT COMPOUNDS
     OF RUSSIAN ACADEMY OF SCIENCES, OSAKA PREFECTURE UNIVERSITY,
     PENNSYLVANIA STATE UNIVERSITY, TOKYO INSTITUTE OF TECHNOLOGY,
     UNIVERSITY OF AARHUS, UNIVERSITY OF ALBERTA,
     UNIVERSITY OF CALIFORNIA AT SANTA BARBARA,
     UNIVERSITY OF COPENHAGEN, UNIVERSITY OF IOWA,
     UNIVERSITY OF MEMPHIS, UNIVERSITY OF MINNESOTA,
     UNIVERSITY OF NEBRASKA, UNIVERSITY OF NEW ENGLAND,
     UNIVERSITY OF NOTRE DAME, UNIVERSITY OF PISA,
     UNIVERSITY OF SILESIA, UNIVERSITY OF TOKYO,
     UNIVERSITY OF ZURICH, WASEDA UNIVERSITY,
     YALE UNIVERSITY

  GAMESS SOFTWARE MANAGEMENT TEAM FOR THIS RELEASE:
     MARK S. GORDON (TEAM LEAD),
     BRETT BODE (SENIOR ADVISOR),
     GIUSEPPE BARCA,
     COLLEEN BERTONI,
     KRISTOPHER KEIPERT (ADVISOR),
     SAROM S. LEANG (DEVELOPMENT LEAD),
     BUU PHAM,
     JACKSON HAYES (WEBSITE ADMINISTRATOR),
     PENG XU


 PARALLEL VERSION RUNNING ON        2 PROCESSORS IN        2 NODES.

 EXECUTION OF GAMESS BEGUN 21:02:20 22-MAY-2023    

            ECHO OF THE FIRST FEW INPUT CARDS -
 INPUT CARD>! (Energy/Geometry) PM3                                                         
 INPUT CARD> $CONTRL                                                                        
 INPUT CARD>COORD=UNIQUE                                                                    
 INPUT CARD>ICHARG=0                                                                        
 INPUT CARD>MAXIT=200                                                                       
 INPUT CARD>MULT=1                                                                          
 INPUT CARD>RUNTYP=OPTIMIZE                                                                 
 INPUT CARD>SCFTYP=RHF                                                                      
 INPUT CARD>UNITS=ANGS                                                                      
 INPUT CARD>! DFTTYP=PBE                                                                    
 INPUT CARD> $END                                                                           
 INPUT CARD> $DFT                                                                           
 INPUT CARD>METHOD=GRID                                                                     
 INPUT CARD> $END                                                                           
 INPUT CARD> $BASIS                                                                         
 INPUT CARD>! EXTFIL=.T.                                                                    
 INPUT CARD>! GBASIS=GEGSSBAS                                                               
 INPUT CARD>! NGAUSS=6                                                                      
 INPUT CARD>GBASIS=PM3                                                                      
 INPUT CARD>! NDFUNC=1                                                                      
 INPUT CARD>! NPFUNC=1                                                                      
 INPUT CARD> $END                                                                           
 INPUT CARD> $SCF                                                                           
 INPUT CARD>DAMP=.F.                                                                        
 INPUT CARD>DEM=.F.                                                                         
 INPUT CARD>DIIS=.F.                                                                        
 INPUT CARD>DIRSCF=.T.                                                                      
 INPUT CARD>EXTRAP=.T.                                                                      
 INPUT CARD>RSTRCT=.F.                                                                      
 INPUT CARD>SHIFT=.F.                                                                       
 INPUT CARD>SOSCF=.T.                                                                       
 INPUT CARD> $END                                                                           
 INPUT CARD> $STATPT                                                                        
 INPUT CARD>METHOD=QA                                                                       
 INPUT CARD>NSTEP=100                                                                       
 INPUT CARD>OPTTOL=0.001                                                                    
 INPUT CARD> $END                                                                           
 INPUT CARD> $GUESS                                                                         
 INPUT CARD>GUESS=HUCKEL                                                                    
 INPUT CARD> $END                                                                           
 INPUT CARD> $SYSTEM                                                                        
 INPUT CARD>MWORDS=10                                                                       
 INPUT CARD> $END                                                                           
 INPUT CARD> $DATA                                                                          
 INPUT CARD>C26 FULLERENE                                                                   
 INPUT CARD>C1                                                                              
 INPUT CARD>C	6.0	-2.03950	0.64990	-1.09300                                                 
 INPUT CARD>C	6.0	-1.23240	-0.22710	-1.81620                                                
 INPUT CARD>C	6.0	-2.55820	-0.00860	-0.00810                                                
 INPUT CARD>C	6.0	-2.03060	-1.26790	0.00690                                                 
     10000000 WORDS OF MEMORY AVAILABLE

     BASIS OPTIONS
     -------------
     GBASIS=PM3          IGAUSS=       0      POLAR=NONE    
     NDFUNC=       0     NFFUNC=       0     DIFFSP=       F
     NPFUNC=       0      DIFFS=       F     BASNAM=        


     RUN TITLE
     ---------
 C26 FULLERENE                                                                   

 THE POINT GROUP OF THE MOLECULE IS C1      
 THE ORDER OF THE PRINCIPAL AXIS IS     0

 ATOM      ATOMIC                      COORDINATES (BOHR)
           CHARGE         X                   Y                   Z
 C           6.0    -3.8540961520        1.2281329194       -2.0654705046
 C           6.0    -2.3288983073       -0.4291567718       -3.4321203389
 C           6.0    -4.8342970218       -0.0162516435       -0.0153067805
 C           6.0    -3.8372775907       -2.3959835798        0.0130391093
 C           6.0    -0.0139839723       -3.6267621156       -1.2846357265
 C           6.0    -2.3194496773       -2.7172369977       -2.1095011201
 C           6.0     2.3047098146       -2.6665923413       -2.0575336554
 C           6.0    -3.8057191667        1.1625594276        2.0620689978
 C           6.0    -2.3298431703       -2.7465277506        2.1370911195
 C           6.0    -2.3171820061       -0.4593923876        3.4903238993
 C           6.0    -2.3181268691        3.1717160978        1.2670612748
 C           6.0    -2.3215283759        3.2522184249       -1.3709962041
 C           6.0    -0.0105824655        3.0192152106       -2.5944048085
 C           6.0    -0.0192752051        2.9067765143        2.5093671391
 C           6.0     2.2661594045        3.1462047970        1.2464632615
 C           6.0     2.3375910468        3.2180143845       -1.3915942174
 C           6.0     0.0147398627        0.6736873146        3.9406456022
 C           6.0     2.3304100881       -0.3873938275       -3.4324982841
 C           6.0    -0.0054802054        0.7258437519       -3.8949142333
 C           6.0     3.9047408084        1.2396602479       -2.1093121475
 C           6.0     4.8392103094       -0.0187082873       -0.0315584240
 C           6.0     3.7630113594        1.1461188116        2.0388253682
 C           6.0     0.0153067805       -3.7114218399        1.3607916838
 C           6.0     2.3600787861       -2.7971724070        2.1824445432
 C           6.0     2.3353233756       -0.5038009483        3.4999615019
 C           6.0     3.8452144398       -2.4088337165        0.0398732183

          INTERNUCLEAR DISTANCES (ANGS.)
          ------------------------------

                1 C          2 C          3 C          4 C          5 C     

   1 C       0.0000000    1.3941154 *  1.3710142 *  2.2108406 *  3.3015814  
   2 C       1.3941154 *  0.0000000    2.2527125 *  2.2459033 *  2.3780732 *
   3 C       1.3710142 *  2.2527125 *  0.0000000    1.3654388 *  3.2570161  
   4 C       2.2108406 *  2.2459033 *  1.3654388 *  0.0000000    2.2336264 *
   5 C       3.3015814    2.3780732 *  3.2570161    2.2336264 *  0.0000000  
   6 C       2.2403031 *  1.3985427 *  2.2454475 *  1.3912615 *  1.3822380 *
   7 C       3.8560954    2.8183809 *  4.1721327    3.4329091    1.3895955 *
   8 C       2.1846256 *  3.1262096    1.3761720 *  2.1730281 *  3.6858739  
   9 C       3.1654708    3.1920543    2.2674188 *  1.3907234 *  2.2354987 *
  10 C       3.1784439    3.6632402    2.2957810 *  2.2546047 *  3.2679509  
  11 C       2.1973594 *  3.1328325    2.2537434 *  3.1252686    4.0314673  
  12 C       1.3928505 *  2.2326521 *  2.2965803 *  3.1801411    3.8398216  
  13 C       2.2612868 *  2.2430890 *  3.3103845    3.7704292    3.5845469  
  14 C       3.2814467    3.8072854    3.2664645    3.7015205    3.9980598  
  15 C       3.8198180    3.9524585    4.1670709    4.4112290    4.0119383  
  16 C       3.4599747    3.3149366    4.2264875    4.4783208    3.8303190  
  17 C       3.7919799    4.1352614    3.3316629    3.3336911    3.5811757  
  18 C       3.4590066    2.4656991 *  4.2051440    3.8867171    2.4019637 *
  19 C       2.2705961 *  1.3947085 *  3.3012998    3.3342608    2.6857403 *
  20 C       4.1058701    3.4858697    4.8016225    4.6634037    3.3350160  
  21 C       4.7703792    4.2040150    5.1190074    4.7606801    3.2681462  
  22 C       4.5789062    4.4123389    4.7178244    4.5648920    3.6697395  
  23 C       3.7831826    3.3148876    3.3075308    2.2692526 *  1.4007024 *
  24 C       4.5170737    4.0687276    4.2440766    3.4811055    2.2665248 *
  25 C       4.4990195    4.4215378    4.2333608    3.8828770    3.2691208  
  26 C       4.6416834    3.8920089    4.7644004    4.0654305    2.2532692 *

                6 C          7 C          8 C          9 C         10 C     

   1 C       2.2403031 *  3.8560954    2.1846256 *  3.1654708    3.1784439  
   2 C       1.3985427 *  2.8183809 *  3.1262096    3.1920543    3.6632402  
   3 C       2.2454475 *  4.1721327    1.3761720 *  2.2674188 *  2.2957810 *
   4 C       1.3912615 *  3.4329091    2.1730281 *  1.3907234 *  2.2546047 *
   5 C       1.3822380 *  1.3895955 *  3.6858739    2.2354987 *  3.2679509  
   6 C       0.0000000    2.4473013 *  3.1155831    2.2472602 *  3.1951049  
   7 C       2.4473013 *  0.0000000    4.3947485    3.3081133    3.9956330  
   8 C       3.1155831    4.3947485    0.0000000    2.2114798 *  1.3886626 *
   9 C       2.2472602 *  3.3081133    2.2114798 *  0.0000000    1.4062966 *
  10 C       3.1951049    3.9956330    1.3886626 *  1.4062966 *  0.0000000  
  11 C       3.5922111    4.3156147    1.3881882 *  3.1654664    2.2530679 *
  12 C       3.1829821    3.9918957    2.2671669 *  3.6773708    3.2365800  
  13 C       3.2823020    3.2610896    3.3272156    4.1333390    3.9046338  
  14 C       4.0389183    4.0063971    2.2187315 *  3.2378195    2.2183666 *
  15 C       4.3208305    3.5382333    3.4076620    3.9825907    3.3065009  
  16 C       4.0102638    3.1339248    3.8847862    4.4214754    4.0654921  
  17 C       3.8724453    3.8298538    2.2676930 *  2.3928965 *  1.3925024 *
  18 C       2.8398477 *  1.4086390 *  4.4351465    4.0406347    4.4125502  
  19 C       2.3899229 *  2.3796253 *  3.7462679    3.8830620    4.1428358  
  20 C       3.9029318    2.2339548 *  4.6392145    4.5148364    4.5198995  
  21 C       4.1950880    2.2162079 *  4.7482705    4.2181557    4.2271892  
  22 C       4.3998300    3.0602539    4.0052283    3.8264027    3.4152751  
  23 C       2.2749959 *  2.2462301 *  3.2982528    1.4034066 *  2.3989366 *
  24 C       3.3603869    2.2449550 *  3.8782242    2.4820607 *  2.8522866 *
  25 C       4.0312153    3.1557940    3.4521139    2.8325083 *  2.4621174 *
  26 C       3.4586503    1.3838475 *  4.5944323    3.4556408    3.8771420  

               11 C         12 C         13 C         14 C         15 C     

   1 C       2.1973594 *  1.3928505 *  2.2612868 *  3.2814467    3.8198180  
   2 C       3.1328325    2.2326521 *  2.2430890 *  3.8072854    3.9524585  
   3 C       2.2537434 *  2.2965803 *  3.3103845    3.2664645    4.1670709  
   4 C       3.1252686    3.1801411    3.7704292    3.7015205    4.4112290  
   5 C       4.0314673    3.8398216    3.5845469    3.9980598    4.0119383  
   6 C       3.5922111    3.1829821    3.2823020    4.0389183    4.3208305  
   7 C       4.3156147    3.9918957    3.2610896    4.0063971    3.5382333  
   8 C       1.3881882 *  2.2671669 *  3.3272156    2.2187315 *  3.4076620  
   9 C       3.1654664    3.6773708    4.1333390    3.2378195    3.9825907  
  10 C       2.2530679 *  3.2365800    3.9046338    2.2183666 *  3.3065009  
  11 C       0.0000000    1.3966510 *  2.3818231 *  1.3898572 *  2.4259621 *
  12 C       1.3966510 *  0.0000000    1.3891775 *  2.3946027 *  2.7955995 *
  13 C       2.3818231 *  1.3891775 *  0.0000000    2.7014592 *  2.3637079 *
  14 C       1.3898572 *  2.3946027 *  2.7014592 *  0.0000000    1.3875612 *
  15 C       2.4259621 *  2.7955995 *  2.3637079 *  1.3875612 *  0.0000000  
  16 C       2.8372144 *  2.4655905 *  1.4000907 *  2.4174301 *  1.3970286 *
  17 C       2.2963164 *  3.3601926    3.6742216    1.4037071 *  2.2724359 *
  18 C       3.9727793    3.3105144    2.2318255 *  3.8041310    3.1029434  
  19 C       3.2610639    2.2523819 *  1.3951529 *  3.5801286    3.2384721  
  20 C       3.8834840    3.4846203    2.2902977 *  3.3262222    2.2188302 *
  21 C       4.2033031    4.2257788    3.3181418    3.2885565    2.2619220 *
  22 C       3.4163261    3.8555261    3.3138211    2.2217264 *  1.3868834 *
  23 C       3.8463319    4.1470669    4.1311673    3.5545971    3.8198553  
  24 C       4.0422757    4.4633055    4.1757648    3.2750573    3.1842497  
  25 C       3.3530747    4.0825666    3.9264887    2.2549068 *  2.2702617 *
  26 C       4.4474602    4.4922997    3.7890830    3.7151255    3.1220438  

               16 C         17 C         18 C         19 C         20 C     

   1 C       3.4599747    3.7919799    3.4590066    2.2705961 *  4.1058701  
   2 C       3.3149366    4.1352614    2.4656991 *  1.3947085 *  3.4858697  
   3 C       4.2264875    3.3316629    4.2051440    3.3012998    4.8016225  
   4 C       4.4783208    3.3336911    3.8867171    3.3342608    4.6634037  
   5 C       3.8303190    3.5811757    2.4019637 *  2.6857403 *  3.3350160  
   6 C       4.0102638    3.8724453    2.8398477 *  2.3899229 *  3.9029318  
   7 C       3.1339248    3.8298538    1.4086390 *  2.3796253 *  2.2339548 *
   8 C       3.8847862    2.2676930 *  4.4351465    3.7462679    4.6392145  
   9 C       4.4214754    2.3928965 *  4.0406347    3.8830620    4.5148364  
  10 C       4.0654921    1.3925024 *  4.4125502    4.1428358    4.5198995  
  11 C       2.8372144 *  2.2963164 *  3.9727793    3.2610639    3.8834840  
  12 C       2.4655905 *  3.3601926    3.3105144    2.2523819 *  3.4846203  
  13 C       1.4000907 *  3.6742216    2.2318255 *  1.3951529 *  2.2902977 *
  14 C       2.4174301 *  1.4037071 *  3.8041310    3.5801286    3.3262222  
  15 C       1.3970286 *  2.2724359 *  3.1029434    3.2384721    2.2188302 *
  16 C       0.0000000    3.3594220    2.1923724 *  2.2430817 *  1.3885194 *
  17 C       3.3594220    0.0000000    4.1279717    4.1465057    3.8179477  
  18 C       2.1923724 *  4.1279717    0.0000000    1.3909925 *  1.3876803 *
  19 C       2.2430817 *  4.1465057    1.3909925 *  0.0000000    2.2909287 *
  20 C       1.3885194 *  3.8179477    1.3876803 *  2.2909287 *  0.0000000  
  21 C       2.2812493 *  3.3272304    2.2448844 *  3.3026300    1.3772630 *
  22 C       2.2508611 *  2.2382165 *  3.1009692    3.7263783    2.1969386 *
  23 C       4.1325226    2.6923022 *  3.3209612    3.6398857    3.8042851  
  24 C       3.7026049    2.4040466 *  3.2334201    3.9224066    3.2232574  
  25 C       3.2525780    1.3966459 *  3.6690181    4.1558299    3.2174098  
  26 C       3.1743334    3.3212142    2.2722735 *  3.3525208    2.2409922 *

               21 C         22 C         23 C         24 C         25 C     

   1 C       4.7703792    4.5789062    3.7831826    4.5170737    4.4990195  
   2 C       4.2040150    4.4123389    3.3148876    4.0687276    4.4215378  
   3 C       5.1190074    4.7178244    3.3075308    4.2440766    4.2333608  
   4 C       4.7606801    4.5648920    2.2692526 *  3.4811055    3.8828770  
   5 C       3.2681462    3.6697395    1.4007024 *  2.2665248 *  3.2691208  
   6 C       4.1950880    4.3998300    2.2749959 *  3.3603869    4.0312153  
   7 C       2.2162079 *  3.0602539    2.2462301 *  2.2449550 *  3.1557940  
   8 C       4.7482705    4.0052283    3.2982528    3.8782242    3.4521139  
   9 C       4.2181557    3.8264027    1.4034066 *  2.4820607 *  2.8325083 *
  10 C       4.2271892    3.4152751    2.3989366 *  2.8522866 *  2.4621174 *
  11 C       4.2033031    3.4163261    3.8463319    4.0422757    3.3530747  
  12 C       4.2257788    3.8555261    4.1470669    4.4633055    4.0825666  
  13 C       3.3181418    3.3138211    4.1311673    4.1757648    3.9264887  
  14 C       3.2885565    2.2217264 *  3.5545971    3.2750573    2.2549068 *
  15 C       2.2619220 *  1.3868834 *  3.8198553    3.1842497    2.2702617 *
  16 C       2.2812493 *  2.2508611 *  4.1325226    3.7026049    3.2525780  
  17 C       3.3272304    2.2382165 *  2.6923022 *  2.4040466 *  1.3966459 *
  18 C       2.2448844 *  3.1009692    3.3209612    3.2334201    3.6690181  
  19 C       3.3026300    3.7263783    3.6398857    3.9224066    4.1558299  
  20 C       1.3772630 *  2.1969386 *  3.8042851    3.2232574    3.2174098  
  21 C       0.0000000    1.3800792 *  3.2981295    2.2924900 *  2.3051970 *
  22 C       1.3800792 *  0.0000000    3.2663879    2.2161342 *  1.3895762 *
  23 C       3.2981295    3.2663879    0.0000000    1.4009633 *  2.3811422 *
  24 C       2.2924900 *  2.2161342 *  1.4009633 *  0.0000000    1.3996730 *
  25 C       2.3051970 *  1.3895762 *  2.3811422 *  1.3996730 *  0.0000000  
  26 C       1.3703371 *  2.1586446 *  2.2519432 *  1.3947658 *  2.2376835 *

               26 C     

   1 C       4.6416834  
   2 C       3.8920089  
   3 C       4.7644004  
   4 C       4.0654305  
   5 C       2.2532692 *
   6 C       3.4586503  
   7 C       1.3838475 *
   8 C       4.5944323  
   9 C       3.4556408  
  10 C       3.8771420  
  11 C       4.4474602  
  12 C       4.4922997  
  13 C       3.7890830  
  14 C       3.7151255  
  15 C       3.1220438  
  16 C       3.1743334  
  17 C       3.3212142  
  18 C       2.2722735 *
  19 C       3.3525208  
  20 C       2.2409922 *
  21 C       1.3703371 *
  22 C       2.1586446 *
  23 C       2.2519432 *
  24 C       1.3947658 *
  25 C       2.2376835 *
  26 C       0.0000000  

  * ... LESS THAN  3.000


 TOTAL NUMBER OF BASIS SET SHELLS             =   26
 NUMBER OF CARTESIAN GAUSSIAN BASIS FUNCTIONS =  104
 NUMBER OF ELECTRONS                          =  104
 CHARGE OF MOLECULE                           =    0
 SPIN MULTIPLICITY                            =    1
 NUMBER OF OCCUPIED ORBITALS (ALPHA)          =   52
 NUMBER OF OCCUPIED ORBITALS (BETA )          =   52
 TOTAL NUMBER OF ATOMS                        =   26
 THE NUCLEAR REPULSION ENERGY IS     2267.0910603338

 THE PARAMETERS USED IN THIS CALCULATION ARE DESCRIBED IN:

  C: (PM3): J. J. P. STEWART, J. COMP. CHEM. 10, 209 (1989).                    

 THERE ARE   26 HEAVY AND    0 LIGHT ATOMS,
 YIELDING A TOTAL OF     32500 MOPAC 2E- INTEGRALS.

     $CONTRL OPTIONS
     ---------------
 SCFTYP=RHF          RUNTYP=OPTIMIZE     EXETYP=RUN     
 MPLEVL=       0     CITYP =NONE         CCTYP =NONE         VBTYP =NONE    
 DFTTYP=NONE         TDDFT =NONE    
 MULT  =       1     ICHARG=       0     NZVAR =       0     COORD =UNIQUE  
 PP    =NONE         RELWFN=NONE         LOCAL =NONE         NUMGRD=       F
 ISPHER=      -1     NOSYM =       0     MAXIT =     200     UNITS =ANGS    
 PLTORB=       F     MOLPLT=       F     AIMPAC=       F     FRIEND=        
 NPRINT=       7     IREST =       0     GEOM  =INPUT   
 NORMF =       0     NORMP =       0     ITOL  =      20     ICUT  =       9
 INTTYP=BEST         GRDTYP=BEST         QMTTOL= 1.0E-06

     $SYSTEM OPTIONS
     ---------------
  REPLICATED MEMORY=    10000000 WORDS (ON EVERY NODE).
 DISTRIBUTED MEMDDI=           0 MILLION WORDS IN AGGREGATE,
 MEMDDI DISTRIBUTED OVER   2 PROCESSORS IS           0 WORDS/PROCESSOR.
 TOTAL MEMORY REQUESTED ON EACH PROCESSOR=    10000000 WORDS.
 TIMLIM=      525600.00 MINUTES, OR     365.0 DAYS.
 PARALL= T  BALTYP=  DLB     KDIAG=    0  COREFL= F
 MXSEQ2=     300 MXSEQ3=     150  mem10=         0  mem22=         0

          ----------------
          PROPERTIES INPUT
          ----------------

     MOMENTS            FIELD           POTENTIAL          DENSITY
 IEMOM =       1   IEFLD =       0   IEPOT =       0   IEDEN =       0
 WHERE =COMASS     WHERE =NUCLEI     WHERE =NUCLEI     WHERE =NUCLEI  
 OUTPUT=BOTH       OUTPUT=BOTH       OUTPUT=BOTH       OUTPUT=BOTH    
 IEMINT=       0   IEFINT=       0                     IEDINT=       0
                                                       MORB  =       0
          EXTRAPOLATION IN EFFECT
          SOSCF IN EFFECT
 ORBITAL PRINTING OPTION: NPREO=     1   104     2     1

     -------------------------------
     INTEGRAL TRANSFORMATION OPTIONS
     -------------------------------
     NWORD  =            0
     CUTTRF = 1.0E-09     MPTRAN =       0
     DIRTRF =       T     AOINTS =DUP     

          ----------------------
          INTEGRAL INPUT OPTIONS
          ----------------------
 NOPK  =       1 NORDER=       0 SCHWRZ=       T

     ------------------------------------------
     THE POINT GROUP IS C1 , NAXIS= 0, ORDER= 1
     ------------------------------------------

     DIMENSIONS OF THE SYMMETRY SUBSPACES ARE
 A   =  104

 ..... DONE SETTING UP THE RUN .....
 CPU     0: STEP CPU TIME=     0.03 TOTAL CPU TIME=          0.0 (      0.0 MIN)
 TOTAL WALL CLOCK TIME=          0.0 SECONDS, CPU UTILIZATION IS    69.44%


          -----------------------------
          STATIONARY POINT LOCATION RUN
          -----------------------------

 OBTAINING INITIAL HESSIAN, HESS=GUESS   
 CARTESIAN COORDINATE OPTIMIZATION USING BADGER'S RULE FORCE CONSTANT GUESS

          PARAMETERS CONTROLLING GEOMETRY SEARCH ARE
          METHOD =QA                  UPHESS =BFGS    
          NNEG   =         0          NFRZ   =         0
          NSTEP  =       100          IFOLOW =         1
          HESS   =GUESS               RESTAR =         F
          IHREP  =         0          HSSEND =         F
          NPRT   =         0          NPUN   =         0
          OPTTOL = 1.000E-03          RMIN   = 1.500E-03
          RMAX   = 1.000E-01          RLIM   = 7.000E-02
          DXMAX  = 3.000E-01          PURIFY =         F
          MOVIE  =         F          TRUPD  =         T
          TRMAX  = 5.000E-01          TRMIN  = 5.000E-02
          ITBMAT =         5          STPT   =         F
          STSTEP = 1.000E-02          PROJCT=          T

 BEGINNING GEOMETRY SEARCH POINT NSERCH=   0 ...

 COORDINATES OF ALL ATOMS ARE (ANGS)
   ATOM   CHARGE       X              Y              Z
 ------------------------------------------------------------
 C           6.0  -2.0395000000   0.6499000000  -1.0930000000
 C           6.0  -1.2324000000  -0.2271000000  -1.8162000000
 C           6.0  -2.5582000000  -0.0086000000  -0.0081000000
 C           6.0  -2.0306000000  -1.2679000000   0.0069000000
 C           6.0  -0.0074000000  -1.9192000000  -0.6798000000
 C           6.0  -1.2274000000  -1.4379000000  -1.1163000000
 C           6.0   1.2196000000  -1.4111000000  -1.0888000000
 C           6.0  -2.0139000000   0.6152000000   1.0912000000
 C           6.0  -1.2329000000  -1.4534000000   1.1309000000
 C           6.0  -1.2262000000  -0.2431000000   1.8470000000
 C           6.0  -1.2267000000   1.6784000000   0.6705000000
 C           6.0  -1.2285000000   1.7210000000  -0.7255000000
 C           6.0  -0.0056000000   1.5977000000  -1.3729000000
 C           6.0  -0.0102000000   1.5382000000   1.3279000000
 C           6.0   1.1992000000   1.6649000000   0.6596000000
 C           6.0   1.2370000000   1.7029000000  -0.7364000000
 C           6.0   0.0078000000   0.3565000000   2.0853000000
 C           6.0   1.2332000000  -0.2050000000  -1.8164000000
 C           6.0  -0.0029000000   0.3841000000  -2.0611000000
 C           6.0   2.0663000000   0.6560000000  -1.1162000000
 C           6.0   2.5608000000  -0.0099000000  -0.0167000000
 C           6.0   1.9913000000   0.6065000000   1.0789000000
 C           6.0   0.0081000000  -1.9640000000   0.7201000000
 C           6.0   1.2489000000  -1.4802000000   1.1549000000
 C           6.0   1.2358000000  -0.2666000000   1.8521000000
 C           6.0   2.0348000000  -1.2747000000   0.0211000000

          ********************
          1 ELECTRON INTEGRALS
          ********************

          **************************
          1 AND 2 ELECTRON INTEGRALS
          **************************

 MOPAC ONE- AND TWO-ELECTRON INTEGRALS REQUIRE     43420 WORDS.
 ...... END OF ONE- AND TWO-ELECTRON INTEGRALS......
 CPU     0: STEP CPU TIME=     0.02 TOTAL CPU TIME=          0.0 (      0.0 MIN)
 TOTAL WALL CLOCK TIME=          0.0 SECONDS, CPU UTILIZATION IS    93.75%
 ...... END OF ONE-ELECTRON INTEGRALS ......
 CPU     0: STEP CPU TIME=     0.00 TOTAL CPU TIME=          0.0 (      0.0 MIN)
 TOTAL WALL CLOCK TIME=          0.0 SECONDS, CPU UTILIZATION IS    93.75%

          -------------
          GUESS OPTIONS
          -------------
          GUESS =HUCKEL            NORB  =       0          NORDER=       0
          MIX   =       F          PRTMO =       F          PUNMO =       F
          TOLZ  = 1.0E-08          TOLE  = 1.0E-05
          SYMDEN=       F          PURIFY=       F

 INITIAL GUESS ORBITALS GENERATED BY HUCKEL   ROUTINE.

 SYMMETRIES FOR INITIAL GUESS ORBITALS FOLLOW.   BOTH SET(S).
    52 ORBITALS ARE OCCUPIED (    0 CORE ORBITALS).
     1=A        2=A        3=A        4=A        5=A        6=A        7=A   
     8=A        9=A       10=A       11=A       12=A       13=A       14=A   
    15=A       16=A       17=A       18=A       19=A       20=A       21=A   
    22=A       23=A       24=A       25=A       26=A       27=A       28=A   
    29=A       30=A       31=A       32=A       33=A       34=A       35=A   
    36=A       37=A       38=A       39=A       40=A       41=A       42=A   
    43=A       44=A       45=A       46=A       47=A       48=A       49=A   
    50=A       51=A       52=A       53=A       54=A       55=A       56=A   
    57=A       58=A       59=A       60=A       61=A       62=A   
 ...... END OF INITIAL ORBITAL SELECTION ......
 CPU     0: STEP CPU TIME=     0.00 TOTAL CPU TIME=          0.0 (      0.0 MIN)
 TOTAL WALL CLOCK TIME=          0.1 SECONDS, CPU UTILIZATION IS    82.24%

          --------------------------
               R-PM3 SCF CALCULATION
          --------------------------

     NUCLEAR ENERGY =       889.6970578108
     MAXIT =  200     NPUNCH=    2
     EXTRAP=T  DAMP=F  SHIFT=F  RSTRCT=F  DIIS=F  DEM=F  SOSCF=T
     DENSITY MATRIX CONV=  2.00E-05
     SOSCF WILL OPTIMIZE    2704 ORBITAL ROTATIONS, SOGTOL=   0.250
     MEMORY REQUIRED FOR RHF ITERS=    120900 WORDS.

                                                                                   NONZERO     BLOCKS
 ITER EX DEM     TOTAL ENERGY        E CHANGE  DENSITY CHANGE     ORB. GRAD      INTEGRALS    SKIPPED
   1  0  0     -110.8802212118  -110.8802212118   0.176325857   0.000000000              0          0
          ---------------START SECOND ORDER SCF---------------
   2  1  0     -111.7191833598    -0.8389621480   0.060042585   0.015910460              0          0
   3  2  0     -111.7849692662    -0.0657859064   0.060329161   0.019329969              0          0
   4  3  0     -111.7976129308    -0.0126436646   0.010940106   0.003630843              0          0
   5  4  0     -111.8002016670    -0.0025887362   0.022417269   0.003496517              0          0
   6  5  0     -111.8024775071    -0.0022758402   0.046765862   0.004518416              0          0
   7  6  0     -111.8052417162    -0.0027642091   0.015948475   0.003845879              0          0
   8  7  0     -111.8064366491    -0.0011949328   0.046359977   0.002920509              0          0
   9  8  0     -111.8085011718    -0.0020645227   0.027275872   0.003387140              0          0
  10  9  0     -111.8094102258    -0.0009090540   0.057919506   0.003027160              0          0
  11 10  0     -111.8108314656    -0.0014212398   0.016098704   0.001779056              0          0
  12 11  0     -111.8114496020    -0.0006181365   0.020025066   0.001440709              0          0
  13 12  0     -111.8118585898    -0.0004089877   0.010227502   0.001346067              0          0
  14 13  0     -111.8120135613    -0.0001549715   0.004446429   0.000594614              0          0
  15 14  0     -111.8120992280    -0.0000856668   0.007950741   0.000361700              0          0
  16 15  0     -111.8121705543    -0.0000713263   0.006166613   0.000378908              0          0
  17 16  0     -111.8122201564    -0.0000496021   0.013160985   0.000451781              0          0
  18 17  0     -111.8123157794    -0.0000956230   0.015803452   0.000584830              0          0
  19 18  0     -111.8124276847    -0.0001119053   0.022334395   0.000694575              0          0
  20 19  0     -111.8125825992    -0.0001549144   0.014110129   0.000796618              0          0
  21 20  0     -111.8127523419    -0.0001697427   0.013757494   0.000831811              0          0
  22 21  0     -111.8129914638    -0.0002391219   0.010108296   0.000853107              0          0
  23 22  0     -111.8131498366    -0.0001583729   0.011743667   0.000712753              0          0
  24 23  0     -111.8133066771    -0.0001568404   0.012246742   0.000526356              0          0
  25 24  0     -111.8133810254    -0.0000743484   0.009207665   0.000584285              0          0
  26 25  0     -111.8134427153    -0.0000616898   0.005352004   0.000424158              0          0
  27 26  0     -111.8134922561    -0.0000495408   0.007364857   0.000339012              0          0
  28 27  0     -111.8135368368    -0.0000445807   0.005906035   0.000265849              0          0
  29 28  0     -111.8135577489    -0.0000209121   0.004636561   0.000213014              0          0
  30 29  0     -111.8135737002    -0.0000159513   0.002543535   0.000171328              0          0
  31 30  0     -111.8135797768    -0.0000060766   0.000803001   0.000132313              0          0
  32 31  0     -111.8135824433    -0.0000026665   0.000539764   0.000059802              0          0
  33 32  0     -111.8135833788    -0.0000009355   0.000378132   0.000032922              0          0
  34 33  0     -111.8135837009    -0.0000003221   0.000315858   0.000018369              0          0
  35 34  0     -111.8135838255    -0.0000001245   0.000205424   0.000014309              0          0
  36 35  0     -111.8135838836    -0.0000000582   0.000144155   0.000012668              0          0
  37 36  0     -111.8135839166    -0.0000000329   0.000102325   0.000010763              0          0
  38 37  0     -111.8135839369    -0.0000000203   0.000110216   0.000008836              0          0
  39 38  0     -111.8135839498    -0.0000000129   0.000096996   0.000006802              0          0
  40 39  0     -111.8135839580    -0.0000000082   0.000066572   0.000004639              0          0
  41 40  0     -111.8135839630    -0.0000000050   0.000037814   0.000002576              0          0
  42 41  0     -111.8135839656    -0.0000000027   0.000026655   0.000001818              0          0

          ----------------
          ENERGY CONVERGED
          ----------------
     TIME TO FORM FOCK OPERATORS=       0.0 SECONDS (       0.0 SEC/ITER)
     FOCK TIME ON FIRST ITERATION=       0.0, LAST ITERATION=       0.0
     TIME TO SOLVE SCF EQUATIONS=       0.2 SECONDS (       0.0 SEC/ITER)

 FINAL R-PM3 ENERGY IS     -111.8135839656 AFTER  42 ITERATIONS

 HEAT OF FORMATION IS       968.89636 KCAL/MOL
 

          ------------
          EIGENVECTORS
          ------------

                      1          2          3          4          5
                   -1.9795    -1.7172    -1.5814    -1.5781    -1.2889
                     A          A          A          A          A   
    1  C  1  S    0.186766   0.241496   0.185599  -0.035624  -0.111671
    2  C  1  X    0.045592   0.032448   0.074116  -0.014593  -0.092530
    3  C  1  Y   -0.022213  -0.038786   0.019645   0.053002  -0.061939
    4  C  1  Z    0.036471   0.061584  -0.006396   0.035455   0.054019
    5  C  2  S    0.181205   0.160099   0.185290  -0.183693  -0.168355
    6  C  2  X    0.017396  -0.031102   0.037586  -0.032717  -0.052360
    7  C  2  Y    0.009936   0.007192   0.071277   0.034955  -0.066462
    8  C  2  Z    0.053590   0.063519   0.020155  -0.038148   0.001135
    9  C  3  S    0.189486   0.290123   0.007046  -0.000838   0.218935
   10  C  3  X    0.067829   0.091875   0.002046  -0.000542   0.046346
   11  C  3  Y   -0.002271  -0.005034   0.044966   0.049280  -0.080474
   12  C  3  Z    0.001361   0.001944  -0.047979   0.044539   0.073767
   13  C  4  S    0.195796   0.257622  -0.121394  -0.140408   0.275485
   14  C  4  X    0.046989   0.033960  -0.049864  -0.056638   0.004973
   15  C  4  Y    0.043743   0.074629   0.014294   0.015024   0.068578
   16  C  4  Z    0.000617   0.000368  -0.049121   0.045929   0.066407
   17  C  5  S    0.189536   0.007123  -0.151394  -0.303539  -0.138190
   18  C  5  X   -0.000935  -0.073130  -0.000916   0.001307  -0.060950
   19  C  5  Y    0.047492   0.001777  -0.003440  -0.060759  -0.017268
   20  C  5  Z    0.025502   0.000244  -0.078765  -0.015490  -0.015866
   21  C  6  S    0.186901   0.168366  -0.034908  -0.263134   0.004878
   22  C  6  X    0.017787  -0.031684  -0.011778  -0.049869  -0.068535
   23  C  6  Y    0.040734   0.049837   0.047082  -0.028386  -0.011187
   24  C  6  Z    0.039408   0.043922  -0.064327  -0.037991   0.062773
   25  C  7  S    0.187324  -0.160817  -0.037869  -0.262015  -0.064822
   26  C  7  X   -0.017464  -0.034682   0.011424   0.048508   0.068239
   27  C  7  Y    0.039367  -0.049013   0.048611  -0.025620   0.062485
   28  C  7  Z    0.038283  -0.041860  -0.067210  -0.035553  -0.047573
   29  C  8  S    0.194482   0.248515  -0.050719   0.183324   0.160086
   30  C  8  X    0.046735   0.031114  -0.022015   0.074645  -0.022160
   31  C  8  Y   -0.022255  -0.038348   0.052294   0.026911  -0.115749
   32  C  8  Z   -0.036214  -0.062184  -0.039312   0.007391  -0.013817
   33  C  9  S    0.188125   0.167140  -0.250754  -0.061628   0.185334
   34  C  9  X    0.017737  -0.032571  -0.047225  -0.016178  -0.097860
   35  C  9  Y    0.042321   0.051273  -0.033086   0.045363   0.069949
   36  C  9  Z   -0.037921  -0.043084   0.027757   0.069742  -0.040914
   37  C 10  S    0.186092   0.159783  -0.200227   0.173234   0.131119
   38  C 10  X    0.018857  -0.031651  -0.037055   0.036975  -0.090397
   39  C 10  Y    0.011049   0.007909   0.026392   0.076224  -0.036349
   40  C 10  Z   -0.055415  -0.064801   0.040060  -0.017779  -0.073862
   41  C 11  S    0.185878   0.158997   0.082114   0.253560  -0.113208
   42  C 11  X    0.018376  -0.031904   0.010386   0.049588  -0.048013
   43  C 11  Y   -0.053176  -0.060367   0.010171  -0.055434  -0.018308
   44  C 11  Z   -0.015521  -0.021581  -0.070456   0.026580   0.044362
   45  C 12  S    0.177776   0.151552   0.247323   0.091727  -0.236169
   46  C 12  X    0.017800  -0.030213   0.047677   0.013197  -0.037765
   47  C 12  Y   -0.051889  -0.058530  -0.057517   0.004774   0.043740
   48  C 12  Z    0.017934   0.023173  -0.023723   0.064234   0.024959
   49  C 13  S    0.178580  -0.002047   0.332482   0.012489  -0.145231
   50  C 13  X    0.000574  -0.067273   0.001442  -0.001629   0.117898
   51  C 13  Y   -0.043957   0.000124  -0.073671   0.037383   0.026986
   52  C 13  Z    0.029699  -0.000510   0.027353   0.049240  -0.007604
   53  C 14  S    0.190595  -0.002109  -0.011632   0.340882  -0.132359
   54  C 14  X    0.000527  -0.072247  -0.000954  -0.000646   0.005483
   55  C 14  Y   -0.045563   0.000588   0.046894  -0.068982   0.020613
   56  C 14  Z   -0.028950   0.000535  -0.053285  -0.025725   0.006320
   57  C 15  S    0.190158  -0.165969   0.082632   0.249876   0.060885
   58  C 15  X   -0.017262  -0.034246  -0.009979  -0.050732   0.085870
   59  C 15  Y   -0.053928   0.061393   0.011276  -0.053333  -0.021434
   60  C 15  Z   -0.015509   0.021973  -0.073447   0.029518  -0.080001
   61  C 16  S    0.180728  -0.160195   0.251620   0.082257   0.170134
   62  C 16  X   -0.017693  -0.030185  -0.048139  -0.014959   0.093566
   63  C 16  Y   -0.052209   0.059792  -0.057433   0.008571  -0.074688
   64  C 16  Z    0.018293  -0.024319  -0.024180   0.063577   0.017725
   65  C 17  S    0.185321  -0.003403  -0.180587   0.284273  -0.135002
   66  C 17  X   -0.000231  -0.069156  -0.000941  -0.002843  -0.059362
   67  C 17  Y   -0.003494  -0.000247   0.046730   0.043899  -0.002353
   68  C 17  Z   -0.056127   0.001143   0.033698  -0.074168   0.025294
   69  C 18  S    0.180747  -0.157686   0.188878  -0.183639   0.100226
   70  C 18  X   -0.017204  -0.031885  -0.037389   0.031533   0.084245
   71  C 18  Y    0.011089  -0.010792   0.072228   0.032527   0.048452
   72  C 18  Z    0.053375  -0.063014   0.021007  -0.038279   0.051729
   73  C 19  S    0.178409   0.000284   0.294163  -0.149939  -0.146978
   74  C 19  X    0.000125  -0.067255   0.000720  -0.000850   0.099738
   75  C 19  Y   -0.002762  -0.001471   0.040564   0.049432  -0.005824
   76  C 19  Z    0.053118   0.000098   0.073315  -0.025979  -0.027503
   77  C 20  S    0.184630  -0.241283   0.186024  -0.045353   0.319772
   78  C 20  X   -0.047310   0.036693  -0.076112   0.016736  -0.026901
   79  C 20  Y   -0.021162   0.035596   0.019205   0.050918  -0.014126
   80  C 20  Z    0.037137  -0.062837  -0.005068   0.030833   0.074333
   81  C 21  S    0.188958  -0.288855   0.004089  -0.011689   0.230602
   82  C 21  X   -0.067838   0.091838  -0.001211   0.003239  -0.049541
   83  C 21  Y   -0.000096  -0.000366   0.046295   0.047278   0.075785
   84  C 21  Z    0.002558  -0.004536  -0.050158   0.043064  -0.065710
   85  C 22  S    0.199631  -0.257355  -0.058101   0.174313   0.064226
   86  C 22  X   -0.046141   0.030105   0.023011  -0.072656   0.052021
   87  C 22  Y   -0.022338   0.037585   0.056159   0.029656   0.044008
   88  C 22  Z   -0.036519   0.063214  -0.041575   0.011892  -0.117436
   89  C 23  S    0.186429   0.001931  -0.279515  -0.180217  -0.139987
   90  C 23  X   -0.000003  -0.071187  -0.001765  -0.000297  -0.107313
   91  C 23  Y    0.049331   0.000123  -0.062513  -0.013526  -0.019669
   92  C 23  Z   -0.024946  -0.001689   0.009023   0.080011   0.016366
   93  C 24  S    0.184261  -0.161122  -0.255468  -0.065596  -0.243492
   94  C 24  X   -0.018700  -0.029961   0.046922   0.015223   0.038302
   95  C 24  Y    0.043022  -0.052201  -0.037378   0.040481  -0.020978
   96  C 24  Z   -0.037201   0.039852   0.029422   0.067929   0.026851
   97  C 25  S    0.186254  -0.163265  -0.209196   0.162340  -0.196037
   98  C 25  X   -0.018555  -0.030475   0.035570  -0.037355   0.040010
   99  C 25  Y    0.011541  -0.010098   0.025832   0.076068   0.022403
  100  C 25  Z   -0.056238   0.065801   0.044282  -0.015142   0.025830
  101  C 26  S    0.191997  -0.247285  -0.128096  -0.142945  -0.048568
  102  C 26  X   -0.047055   0.032854   0.051846   0.056780   0.078184
  103  C 26  Y    0.043425  -0.073946   0.012099   0.010895   0.078962
  104  C 26  Z    0.001046  -0.001239  -0.050039   0.043493  -0.065071

                      6          7          8          9         10
                   -1.2860    -1.2777    -1.1707    -1.1678    -1.0088
                     A          A          A          A          A   
    1  C  1  S    0.309174   0.070714   0.038159   0.023658  -0.036457
    2  C  1  X    0.007180   0.018644   0.039764   0.024939   0.124653
    3  C  1  Y   -0.026678  -0.098860  -0.030585   0.097385   0.083802
    4  C  1  Z    0.081332  -0.059512  -0.068388   0.027124  -0.120208
    5  C  2  S    0.077375   0.215527   0.154347  -0.210476   0.152226
    6  C  2  X   -0.092083  -0.031891   0.050029  -0.033274   0.052788
    7  C  2  Y    0.038820  -0.039746   0.082832   0.100678   0.030650
    8  C  2  Z    0.051013   0.061825  -0.018366  -0.027412  -0.008917
    9  C  3  S    0.274457   0.001212   0.006490   0.002463  -0.365133
   10  C  3  X    0.058044   0.000781   0.000107   0.000125  -0.037419
   11  C  3  Y    0.056879  -0.094526  -0.039786   0.019212   0.020476
   12  C  3  Z   -0.057570  -0.097543   0.018624   0.037789  -0.004481
   13  C  4  S    0.006231   0.203775  -0.027734   0.029073  -0.078249
   14  C  4  X   -0.079464   0.052317  -0.043877   0.024546   0.130448
   15  C  4  Y    0.098092  -0.009597   0.048007  -0.027081  -0.154527
   16  C  4  Z   -0.055620  -0.092668   0.058662   0.105242   0.007564
   17  C  5  S   -0.173544   0.005316  -0.303401  -0.073341   0.010174
   18  C  5  X    0.049656  -0.144281  -0.000791  -0.001120  -0.162097
   19  C  5  Y   -0.020786   0.002331  -0.014807  -0.065064   0.001118
   20  C  5  Z   -0.021016  -0.004334  -0.036187   0.154404  -0.000955
   21  C  6  S   -0.064521   0.285095  -0.143676  -0.218481   0.143581
   22  C  6  X   -0.083643  -0.037925  -0.053651  -0.036472   0.061622
   23  C  6  Y    0.062243   0.055984   0.062656  -0.073759  -0.022181
   24  C  6  Z   -0.038486   0.043712  -0.068306   0.070886   0.015650
   25  C  7  S   -0.009844  -0.276936  -0.148024  -0.224504  -0.149990
   26  C  7  X    0.082557  -0.042711   0.050083   0.030953   0.046253
   27  C  7  Y    0.001335  -0.052625   0.064324  -0.072203   0.018461
   28  C  7  Z    0.056001  -0.044623  -0.068626   0.070503  -0.017994
   29  C  8  S    0.086521  -0.286259  -0.004587  -0.044952  -0.053184
   30  C  8  X   -0.057608  -0.074685  -0.005502  -0.051867   0.122856
   31  C  8  Y    0.021178  -0.029538  -0.105109  -0.029065   0.069195
   32  C  8  Z   -0.118510   0.003614   0.060034  -0.047117   0.124251
   33  C  9  S   -0.215652   0.028521   0.115604   0.245403   0.165482
   34  C  9  X   -0.056547  -0.001199  -0.001157   0.058057   0.056066
   35  C  9  Y   -0.005884  -0.051212   0.095198  -0.016898  -0.013689
   36  C  9  Z    0.018947  -0.071756   0.094716  -0.024833  -0.011689
   37  C 10  S   -0.179635  -0.188625   0.259528  -0.029719   0.165867
   38  C 10  X   -0.059565   0.021907   0.051514  -0.032870   0.049390
   39  C 10  Y    0.013137  -0.071382  -0.046880  -0.128981   0.016238
   40  C 10  Z    0.011568   0.036533  -0.014994  -0.031390   0.001399
   41  C 11  S    0.039074  -0.257335  -0.270365  -0.017210   0.134894
   42  C 11  X   -0.091315   0.034746  -0.056745  -0.024332   0.040309
   43  C 11  Y   -0.023150   0.076461  -0.005903   0.038914  -0.005342
   44  C 11  Z   -0.076062  -0.017285   0.036204  -0.126159   0.015953
   45  C 12  S    0.132967  -0.094369  -0.105436   0.235175   0.162511
   46  C 12  X   -0.096091   0.018324  -0.001328   0.060127   0.038584
   47  C 12  Y   -0.069574   0.000302  -0.032767  -0.010732  -0.016407
   48  C 12  Z    0.019327  -0.074510  -0.129054  -0.018465  -0.028918
   49  C 13  S   -0.158561  -0.002857   0.102934   0.290753  -0.000653
   50  C 13  X   -0.100944   0.001218   0.003295   0.002300  -0.163828
   51  C 13  Y    0.029415   0.000336  -0.103911   0.016315  -0.001455
   52  C 13  Z   -0.008138   0.000876  -0.106854   0.066184  -0.001902
   53  C 14  S   -0.163927   0.009767  -0.220592  -0.223972  -0.018636
   54  C 14  X   -0.004693   0.166543   0.001066   0.003783  -0.150850
   55  C 14  Y    0.028573  -0.002196  -0.069081   0.084427  -0.000816
   56  C 14  Z    0.005282  -0.000820   0.114370  -0.071948   0.004711
   57  C 15  S   -0.105559   0.267670  -0.268331   0.000080  -0.143077
   58  C 15  X    0.065043   0.033369   0.056133   0.027467   0.061425
   59  C 15  Y   -0.021339  -0.076610  -0.006037   0.036459  -0.001210
   60  C 15  Z    0.029357   0.023610   0.034689  -0.130084  -0.022977
   61  C 16  S   -0.204451   0.088074  -0.093053   0.245015  -0.156198
   62  C 16  X    0.053638   0.014953   0.001778  -0.060552   0.051869
   63  C 16  Y    0.028945   0.004279  -0.036165  -0.007604   0.009211
   64  C 16  Z    0.027952   0.079298  -0.130704  -0.011745   0.029193
   65  C 17  S   -0.166700   0.008716   0.209431  -0.232593  -0.002933
   66  C 17  X    0.055387   0.140425   0.001257   0.006051  -0.158289
   67  C 17  Y   -0.005471   0.003545  -0.126426  -0.095240  -0.006686
   68  C 17  Z    0.031848  -0.002987   0.000537   0.045485   0.002663
   69  C 18  S   -0.152488  -0.212046   0.156067  -0.211438  -0.156646
   70  C 18  X    0.063963  -0.034097  -0.051533   0.029727   0.044079
   71  C 18  Y   -0.056741   0.033225   0.083776   0.101823  -0.028836
   72  C 18  Z    0.008361  -0.061579  -0.019521  -0.029969   0.004418
   73  C 19  S   -0.161888  -0.000200   0.303702  -0.067962   0.004410
   74  C 19  X   -0.085233  -0.080361   0.001318  -0.000082  -0.162015
   75  C 19  Y   -0.006082  -0.002849   0.021337   0.155641  -0.001702
   76  C 19  Z   -0.029788   0.000247   0.036802   0.017872   0.000160
   77  C 20  S   -0.055857  -0.082568   0.042456   0.017212   0.041542
   78  C 20  X    0.087196   0.021103  -0.044124  -0.024035   0.121012
   79  C 20  Y   -0.060541   0.095601  -0.024108   0.102779  -0.067938
   80  C 20  Z    0.065671   0.055508  -0.066901   0.026403   0.127378
   81  C 21  S    0.261417  -0.013699  -0.002305  -0.008578   0.367265
   82  C 21  X   -0.055658   0.002273   0.001586   0.002561  -0.038897
   83  C 21  Y   -0.062562   0.093770  -0.032866   0.027389   0.008836
   84  C 21  Z    0.069040   0.095712   0.018783   0.041702   0.023366
   85  C 22  S    0.182930   0.286827  -0.000318  -0.033950   0.084161
   86  C 22  X    0.035618  -0.075988   0.002490   0.046629   0.131259
   87  C 22  Y   -0.113569   0.037457  -0.105605  -0.024051  -0.070977
   88  C 22  Z   -0.034286   0.003865   0.063646  -0.046849  -0.135669
   89  C 23  S   -0.167508  -0.008854  -0.093948   0.301460   0.003070
   90  C 23  X    0.091025  -0.073993  -0.000606  -0.002320  -0.167596
   91  C 23  Y   -0.023325  -0.001429   0.040212   0.047771   0.001641
   92  C 23  Z    0.023478  -0.001176   0.147321   0.042945  -0.001003
   93  C 24  S    0.144660  -0.045126   0.110735   0.238369  -0.164423
   94  C 24  X    0.102042   0.001165  -0.002073  -0.061806   0.049714
   95  C 24  Y    0.069949   0.047935   0.094048  -0.012471   0.014006
   96  C 24  Z   -0.033426   0.071665   0.096176  -0.019222   0.020468
   97  C 25  S    0.107007   0.184816   0.265968  -0.015944  -0.151823
   98  C 25  X    0.101029   0.017371  -0.051511   0.030170   0.052173
   99  C 25  Y   -0.032284   0.081016  -0.040425  -0.124954  -0.016367
  100  C 25  Z   -0.073949  -0.033628  -0.017081  -0.031422  -0.003640
  101  C 26  S    0.263643  -0.209609  -0.041518   0.011059   0.045851
  102  C 26  X    0.007243   0.054957   0.044863  -0.022688   0.126608
  103  C 26  Y    0.084231   0.004962   0.042738  -0.030996   0.146291
  104  C 26  Z    0.055989   0.086204   0.058951   0.104667  -0.001437

                     11         12         13         14         15
                   -0.9660    -0.9603    -0.9576    -0.9573    -0.8873
                     A          A          A          A          A   
    1  C  1  S    0.278207  -0.209480  -0.024386   0.031567  -0.001415
    2  C  1  X   -0.023561  -0.076635   0.015309   0.013096   0.000606
    3  C  1  Y   -0.002507   0.015854   0.113005   0.159206  -0.066878
    4  C  1  Z    0.068770   0.087454   0.038492   0.082762  -0.036716
    5  C  2  S    0.030569  -0.121784   0.020360  -0.248791   0.174232
    6  C  2  X   -0.107704   0.056116   0.158597   0.025559   0.069291
    7  C  2  Y    0.002163  -0.154512   0.041383   0.068412   0.057376
    8  C  2  Z    0.052171  -0.005964  -0.077378  -0.032990  -0.042846
    9  C  3  S    0.013929  -0.014234   0.020985   0.004934  -0.007815
   10  C  3  X    0.001684   0.000710   0.001437   0.000646   0.000907
   11  C  3  Y    0.168075   0.043590   0.155538   0.039353   0.000375
   12  C  3  Z   -0.160217   0.041961   0.162928   0.025538  -0.005506
   13  C  4  S   -0.212268   0.056364  -0.242241   0.113513  -0.000657
   14  C  4  X    0.015298   0.059141  -0.008245   0.067969   0.001198
   15  C  4  Y   -0.030593  -0.062116  -0.001193  -0.075155  -0.004932
   16  C  4  Z   -0.120616  -0.098687   0.137322   0.114175   0.066392
   17  C  5  S    0.048016   0.065227   0.236417  -0.001493  -0.252448
   18  C  5  X   -0.026893  -0.188774   0.059392  -0.062726  -0.005179
   19  C  5  Y   -0.014842   0.013268   0.031349  -0.003368  -0.035690
   20  C  5  Z    0.070701  -0.032427  -0.047201   0.007676   0.124220
   21  C  6  S    0.007022   0.243462  -0.104153  -0.108292  -0.153722
   22  C  6  X    0.004290   0.042796   0.203239   0.026804  -0.078716
   23  C  6  Y    0.011228  -0.055173  -0.054542  -0.119529   0.079275
   24  C  6  Z   -0.017627   0.062378  -0.079824   0.117643  -0.043162
   25  C  7  S   -0.081402  -0.234561   0.050791   0.105036  -0.166056
   26  C  7  X   -0.015951  -0.070165  -0.194899   0.040147   0.073813
   27  C  7  Y    0.012513   0.015866  -0.069087   0.118216   0.083521
   28  C  7  Z   -0.037916  -0.085423  -0.048787  -0.111127  -0.045794
   29  C  8  S   -0.057075   0.153965   0.279422  -0.135342  -0.000547
   30  C  8  X    0.003736   0.038314  -0.033314  -0.083847   0.009599
   31  C  8  Y    0.138271   0.142443  -0.036804   0.021154   0.067085
   32  C  8  Z   -0.065007  -0.056201  -0.045169  -0.114899  -0.034679
   33  C  9  S   -0.061094  -0.158135   0.008916   0.215155   0.164892
   34  C  9  X    0.203248  -0.000123  -0.001669  -0.010057   0.077919
   35  C  9  Y   -0.082222  -0.087512   0.042902  -0.063748  -0.079789
   36  C  9  Z    0.049755  -0.092961   0.050174  -0.100380  -0.038582
   37  C 10  S   -0.026355  -0.180550   0.082385  -0.181188  -0.170051
   38  C 10  X    0.168369  -0.023989  -0.118060   0.007080  -0.071107
   39  C 10  Y    0.017943   0.109512  -0.007616  -0.138347  -0.061629
   40  C 10  Z    0.084777   0.014852  -0.060508  -0.009554  -0.048102
   41  C 11  S    0.019182   0.275463  -0.038846   0.034666   0.164605
   42  C 11  X   -0.106578  -0.052685  -0.168440  -0.025686   0.076871
   43  C 11  Y   -0.037158  -0.052713  -0.073184   0.054552  -0.001481
   44  C 11  Z   -0.033398   0.027763  -0.023897  -0.170991   0.095458
   45  C 12  S    0.026157  -0.050815  -0.015740   0.263017  -0.175501
   46  C 12  X   -0.172424  -0.007457  -0.093436  -0.035270  -0.072058
   47  C 12  Y   -0.072308   0.060427  -0.044909  -0.019846  -0.008374
   48  C 12  Z    0.042294   0.155188  -0.007396   0.036020   0.074820
   49  C 13  S   -0.231425   0.017924  -0.093526  -0.000585  -0.250209
   50  C 13  X    0.023041   0.138655  -0.034929  -0.119461  -0.000274
   51  C 13  Y    0.011875  -0.013537  -0.059143   0.002413  -0.092421
   52  C 13  Z   -0.022375  -0.011483  -0.066507  -0.000261  -0.098998
   53  C 14  S   -0.100445  -0.048902  -0.224449   0.007843   0.253123
   54  C 14  X   -0.029322  -0.167728   0.057383   0.117340  -0.003520
   55  C 14  Y   -0.062306   0.016036   0.000442  -0.002234   0.090261
   56  C 14  Z    0.073060  -0.007168   0.019239   0.002046  -0.097572
   57  C 15  S   -0.068111  -0.245606   0.114847  -0.047299   0.149173
   58  C 15  X    0.102239   0.004518   0.180302  -0.037871  -0.078267
   59  C 15  Y   -0.024070   0.021931  -0.094643  -0.049036  -0.003490
   60  C 15  Z   -0.044581  -0.025802   0.007023   0.177755   0.101791
   61  C 16  S    0.055115   0.039017  -0.042606  -0.262723  -0.181855
   62  C 16  X    0.176208  -0.017005   0.090679  -0.031282   0.073811
   63  C 16  Y   -0.090808  -0.046428  -0.014920   0.010052  -0.016361
   64  C 16  Z   -0.009494  -0.145063   0.073357  -0.046993   0.062251
   65  C 17  S    0.190564  -0.076430  -0.154766   0.016300  -0.251549
   66  C 17  X    0.002248   0.032666   0.012839   0.203195   0.001542
   67  C 17  Y   -0.085991   0.002543  -0.026869   0.000783   0.122199
   68  C 17  Z    0.006153   0.008874   0.024288  -0.003021  -0.029123
   69  C 18  S    0.057921   0.102564  -0.010662   0.247446   0.175605
   70  C 18  X    0.105336  -0.060694  -0.158575   0.045039  -0.067225
   71  C 18  Y    0.059107   0.137146  -0.044341  -0.060696   0.058916
   72  C 18  Z    0.045086  -0.046914  -0.062932   0.041755  -0.043010
   73  C 19  S   -0.162632   0.066268   0.181590  -0.010715   0.247077
   74  C 19  X    0.025658   0.164741  -0.034777   0.086819   0.000814
   75  C 19  Y   -0.030632  -0.014159  -0.084293   0.005752  -0.124270
   76  C 19  Z   -0.026821   0.002621  -0.003185  -0.001663  -0.023839
   77  C 20  S    0.325456   0.068885  -0.111990  -0.000708   0.011115
   78  C 20  X   -0.014715  -0.082080   0.015529   0.006579  -0.000602
   79  C 20  Y    0.014993   0.048606   0.096363  -0.167359  -0.066200
   80  C 20  Z    0.044123  -0.074939   0.066510  -0.082398  -0.036303
   81  C 21  S    0.001581   0.001548  -0.024857  -0.003093   0.003591
   82  C 21  X    0.001392   0.002593  -0.001588  -0.001065  -0.000222
   83  C 21  Y    0.162937  -0.004428   0.163663  -0.045418   0.004338
   84  C 21  Z   -0.148596   0.098483   0.139045  -0.049436  -0.004286
   85  C 22  S   -0.083515   0.041896   0.312412   0.107284   0.000354
   86  C 22  X    0.002898   0.044299  -0.003755  -0.085060  -0.004109
   87  C 22  Y    0.087129  -0.182577   0.067105  -0.018365   0.059155
   88  C 22  Z   -0.048584   0.054995  -0.047504   0.123593  -0.038085
   89  C 23  S    0.244005  -0.039124   0.043732   0.002298   0.255949
   90  C 23  X    0.004549  -0.020161   0.004439  -0.197865  -0.003491
   91  C 23  Y    0.034403  -0.009186  -0.008970   0.000978   0.037565
   92  C 23  Z    0.042137  -0.024757  -0.067911  -0.003601   0.126107
   93  C 24  S    0.013254   0.141558  -0.081976  -0.221605   0.168075
   94  C 24  X   -0.188186   0.065501  -0.024010  -0.013177  -0.077982
   95  C 24  Y   -0.050421   0.122865  -0.013762   0.053941  -0.069121
   96  C 24  Z    0.074113   0.093393   0.002427   0.093364  -0.027313
   97  C 25  S    0.040327   0.220962   0.001123   0.173158  -0.158277
   98  C 25  X   -0.158830   0.094660   0.086027  -0.010575   0.072298
   99  C 25  Y   -0.022450  -0.089293   0.067525   0.148784  -0.075222
  100  C 25  Z    0.068342  -0.071519  -0.032788   0.016616  -0.047940
  101  C 26  S   -0.238709  -0.110656  -0.207131  -0.105072  -0.012153
  102  C 26  X    0.000345   0.059513  -0.027373   0.067114   0.007061
  103  C 26  Y   -0.029351   0.048509  -0.043781   0.073734   0.001298
  104  C 26  Z   -0.058847   0.177705   0.046584  -0.123295   0.072000

                     16         17         18         19         20
                   -0.8608    -0.7733    -0.7677    -0.7560    -0.7357
                     A          A          A          A          A   
    1  C  1  S    0.067505   0.217709  -0.074041  -0.149879  -0.167477
    2  C  1  X    0.008562  -0.122063   0.072650  -0.128779  -0.006261
    3  C  1  Y    0.004543  -0.051020   0.086680  -0.065290   0.099826
    4  C  1  Z   -0.021159   0.121050  -0.039569   0.121674   0.076636
    5  C  2  S   -0.109736  -0.039112   0.158017  -0.036041  -0.042033
    6  C  2  X   -0.029613  -0.077987   0.099357   0.156275   0.170363
    7  C  2  Y    0.175487  -0.033209  -0.023136  -0.064058  -0.019442
    8  C  2  Z   -0.018749   0.041340  -0.038711  -0.064191  -0.077180
    9  C  3  S    0.074557   0.030676  -0.065600   0.317252  -0.035081
   10  C  3  X    0.000740   0.001384   0.006364  -0.014074   0.000172
   11  C  3  Y   -0.002868   0.258654   0.177620   0.006371  -0.013292
   12  C  3  Z   -0.001770  -0.172995   0.238429   0.079609   0.034498
   13  C  4  S    0.075738  -0.222071  -0.144404  -0.087086   0.223253
   14  C  4  X    0.010073   0.095166   0.105198  -0.146679   0.058293
   15  C  4  Y   -0.020487  -0.077852  -0.090345   0.154259  -0.094566
   16  C  4  Z   -0.006679  -0.052425   0.073741  -0.006206  -0.069691
   17  C  5  S    0.113737  -0.008382  -0.017580   0.097588  -0.219267
   18  C  5  X    0.003120  -0.105264  -0.213231  -0.042289  -0.016400
   19  C  5  Y   -0.089480  -0.001101  -0.006117   0.006443  -0.015871
   20  C  5  Z    0.211250   0.006746  -0.000553  -0.004259   0.034175
   21  C  6  S   -0.122363   0.015207   0.150774  -0.033714   0.036031
   22  C  6  X   -0.041526   0.050431   0.134839   0.128463  -0.158952
   23  C  6  Y   -0.099003  -0.021899  -0.025224  -0.012958  -0.003486
   24  C  6  Z    0.145014  -0.002960  -0.049014  -0.076042   0.106977
   25  C  7  S   -0.125061  -0.018156  -0.127402  -0.087350   0.054271
   26  C  7  X    0.033751   0.060870   0.177448  -0.064119   0.162160
   27  C  7  Y   -0.102796   0.036473   0.023387   0.005337   0.037361
   28  C  7  Z    0.146124   0.002366   0.080264  -0.055772   0.065622
   29  C  8  S    0.075224  -0.019887   0.272020  -0.005046   0.011370
   30  C  8  X    0.014055  -0.008801  -0.085181  -0.172110   0.007484
   31  C  8  Y    0.020183   0.073678  -0.042840  -0.068241   0.183616
   32  C  8  Z    0.017908  -0.050026  -0.065861  -0.164032  -0.098994
   33  C  9  S   -0.127626   0.142814  -0.013355  -0.095735  -0.025613
   34  C  9  X   -0.023886   0.177486  -0.026380   0.138030  -0.014512
   35  C  9  Y   -0.107101  -0.039783  -0.013570  -0.045709  -0.103480
   36  C  9  Z   -0.151754   0.063231  -0.039311   0.053811  -0.125441
   37  C 10  S   -0.119189   0.104090  -0.073027  -0.105501  -0.090902
   38  C 10  X   -0.019760   0.106460  -0.158698   0.107795   0.179729
   39  C 10  Y    0.189073  -0.060339   0.004517  -0.030273   0.080673
   40  C 10  Z    0.019985   0.034870  -0.072007   0.055191   0.102283
   41  C 11  S   -0.117606  -0.094159  -0.093153  -0.068220   0.083633
   42  C 11  X   -0.042630  -0.083413  -0.147377   0.068377  -0.199427
   43  C 11  Y   -0.079275  -0.041360  -0.069578   0.046061  -0.057093
   44  C 11  Z    0.157352   0.013358  -0.002024  -0.021620  -0.081409
   45  C 12  S   -0.114388  -0.148582  -0.058258  -0.076280   0.036698
   46  C 12  X   -0.027441  -0.140295  -0.044449   0.137228  -0.059682
   47  C 12  Y   -0.066744  -0.049964  -0.038696   0.077246   0.010043
   48  C 12  Z   -0.158351   0.033583  -0.047801   0.015062   0.099051
   49  C 13  S    0.134788   0.007288  -0.020822   0.146217  -0.040940
   50  C 13  X    0.004966   0.249572   0.009720  -0.005017  -0.010491
   51  C 13  Y   -0.129859  -0.003329  -0.004704   0.010367  -0.054116
   52  C 13  Z   -0.164897   0.001011  -0.008791   0.024110  -0.033680
   53  C 14  S    0.111444  -0.005627  -0.013693   0.095443  -0.204459
   54  C 14  X   -0.005415   0.095025   0.207485   0.037691  -0.013971
   55  C 14  Y   -0.138005  -0.004765  -0.001769   0.008583  -0.085434
   56  C 14  Z    0.182044  -0.002461   0.003074  -0.012071   0.082481
   57  C 15  S   -0.130327   0.094946   0.106875  -0.040878   0.101013
   58  C 15  X    0.042356  -0.079749  -0.114458  -0.123840   0.205343
   59  C 15  Y   -0.078791   0.039168   0.040366   0.071873  -0.045006
   60  C 15  Z    0.153794  -0.024785   0.027701  -0.021582  -0.140201
   61  C 16  S   -0.101030   0.134624   0.075311  -0.061614   0.055199
   62  C 16  X    0.029274  -0.163882   0.007003  -0.137005   0.051849
   63  C 16  Y   -0.070055   0.062683   0.004727   0.082607   0.026682
   64  C 16  Z   -0.166606  -0.021049   0.018853   0.033873   0.159089
   65  C 17  S    0.129533   0.005227  -0.033160   0.141924   0.205100
   66  C 17  X   -0.008495  -0.113692   0.205365   0.047453  -0.000965
   67  C 17  Y    0.213671  -0.005512   0.015382  -0.038597  -0.106447
   68  C 17  Z   -0.038844  -0.001740  -0.002786   0.007078   0.038140
   69  C 18  S   -0.113283   0.037194  -0.135738  -0.095204  -0.024124
   70  C 18  X    0.022981  -0.092701   0.167783  -0.091878  -0.168072
   71  C 18  Y    0.177693   0.020226   0.055108  -0.059988  -0.074584
   72  C 18  Z   -0.025350  -0.043058   0.059670  -0.035145  -0.062193
   73  C 19  S    0.131172   0.009452  -0.031406   0.134244   0.209557
   74  C 19  X    0.000888   0.153964  -0.194783  -0.047258  -0.011465
   75  C 19  Y    0.209657  -0.000272   0.014175  -0.018918  -0.078766
   76  C 19  Z    0.027804   0.002556   0.000133   0.005988  -0.011403
   77  C 20  S    0.065256  -0.243069   0.137834  -0.081413  -0.187590
   78  C 20  X   -0.013687  -0.098054   0.020520   0.165321   0.025205
   79  C 20  Y    0.019903   0.031941  -0.058198  -0.103884   0.078696
   80  C 20  Z   -0.018491  -0.107925  -0.017837   0.140486   0.092780
   81  C 21  S    0.075662   0.001818  -0.051453   0.324726  -0.041189
   82  C 21  X   -0.001071  -0.004634   0.006181   0.014946  -0.006964
   83  C 21  Y    0.003275  -0.254815  -0.168619  -0.023121  -0.022502
   84  C 21  Z    0.013799   0.176330  -0.249705  -0.034589   0.012240
   85  C 22  S    0.080644   0.022503  -0.240459  -0.115538  -0.030732
   86  C 22  X   -0.004587   0.009288  -0.155525   0.130980  -0.011937
   87  C 22  Y    0.010713  -0.071457   0.053917  -0.050193   0.182978
   88  C 22  Z    0.012571   0.027123   0.125651  -0.133410  -0.111410
   89  C 23  S    0.131258   0.013279  -0.027850   0.154512  -0.041924
   90  C 23  X    0.001649  -0.239974  -0.031606   0.001236  -0.003676
   91  C 23  Y   -0.076132   0.006699  -0.004977   0.013560  -0.001923
   92  C 23  Z   -0.205962   0.005852  -0.003845   0.034487   0.063779
   93  C 24  S   -0.117125  -0.153157   0.047554  -0.061779   0.006118
   94  C 24  X    0.029334   0.143752   0.030286  -0.152189  -0.000051
   95  C 24  Y   -0.105150   0.033173   0.025696  -0.032777  -0.062933
   96  C 24  Z   -0.151618  -0.056026   0.014454   0.082549  -0.070720
   97  C 25  S   -0.126898  -0.117896   0.102050  -0.045591  -0.053481
   98  C 25  X    0.028669   0.086107  -0.089422  -0.168567  -0.194063
   99  C 25  Y    0.179822   0.057261   0.012881  -0.046532   0.019403
  100  C 25  Z    0.013065  -0.028939   0.038143   0.082134   0.100595
  101  C 26  S    0.074125   0.212624   0.167165  -0.058193   0.192040
  102  C 26  X   -0.013661   0.097521   0.041362   0.161915  -0.050647
  103  C 26  Y   -0.022727   0.103803   0.025399   0.165741  -0.060435
  104  C 26  Z    0.004546   0.030246  -0.064784  -0.042513  -0.079683

                     21         22         23         24         25
                   -0.7317    -0.7310    -0.7248    -0.6638    -0.6622
                     A          A          A          A          A   
    1  C  1  S   -0.028325  -0.149406  -0.133474   0.002650  -0.008349
    2  C  1  X   -0.010644  -0.013001  -0.037821   0.044853   0.033100
    3  C  1  Y    0.138987  -0.155503  -0.023163   0.088726  -0.059307
    4  C  1  Z    0.094475  -0.058248   0.066691  -0.026678  -0.084224
    5  C  2  S   -0.183043   0.077983   0.114689   0.123195   0.110090
    6  C  2  X    0.004271  -0.110740   0.046414   0.027114   0.015677
    7  C  2  Y   -0.129024  -0.134814  -0.217845  -0.133648   0.095519
    8  C  2  Z    0.032492   0.075670   0.010273  -0.011552  -0.051613
    9  C  3  S    0.000460  -0.042571  -0.025672   0.001481   0.003031
   10  C  3  X   -0.001979   0.007126   0.008019  -0.009956  -0.007603
   11  C  3  Y    0.012272  -0.009983  -0.015302  -0.000762  -0.128168
   12  C  3  Z    0.011581   0.014826   0.012718   0.125923   0.010291
   13  C  4  S   -0.022376  -0.084674  -0.059919  -0.003810  -0.005651
   14  C  4  X   -0.000579  -0.007653  -0.043751  -0.010601  -0.073271
   15  C  4  Y    0.005821   0.029355   0.063081  -0.003712   0.077288
   16  C  4  Z   -0.185131  -0.192096   0.039967   0.174485  -0.025560
   17  C  5  S   -0.012987  -0.147040  -0.010740  -0.111645   0.096408
   18  C  5  X   -0.186308   0.032458   0.106545   0.002727  -0.015039
   19  C  5  Y   -0.003028  -0.017976   0.001252   0.016835  -0.118791
   20  C  5  Z   -0.014264   0.106989  -0.007076   0.017419   0.356706
   21  C  6  S    0.220680   0.081619   0.072924  -0.034296  -0.132697
   22  C  6  X    0.000990  -0.168949  -0.002175   0.034180  -0.052935
   23  C  6  Y   -0.064099   0.150866   0.150574   0.115512   0.013672
   24  C  6  Z    0.056797  -0.059178  -0.185759  -0.159235   0.043121
   25  C  7  S   -0.196890   0.084078  -0.083867  -0.034738  -0.162353
   26  C  7  X    0.020585   0.149613  -0.001813  -0.034812   0.057304
   27  C  7  Y    0.067828   0.092334  -0.174517   0.110188   0.024252
   28  C  7  Z   -0.055626  -0.009596   0.206442  -0.149409   0.037264
   29  C  8  S    0.001888   0.214196  -0.134179   0.004797   0.007534
   30  C  8  X   -0.021838   0.062445  -0.049437  -0.064453   0.018410
   31  C  8  Y   -0.143471   0.058169   0.002416  -0.090556  -0.116562
   32  C  8  Z    0.066546   0.056806  -0.098987  -0.008056   0.117460
   33  C  9  S   -0.176672  -0.050347   0.127009   0.052580  -0.171398
   34  C  9  X    0.013842   0.196006  -0.028240  -0.029955  -0.024690
   35  C  9  Y    0.095310  -0.065956   0.133102  -0.126277   0.009743
   36  C  9  Z    0.113044   0.055011   0.154216  -0.135083  -0.037314
   37  C 10  S    0.206812   0.009040   0.039031  -0.115457   0.135314
   38  C 10  X   -0.000940  -0.083846   0.031058  -0.047345  -0.016071
   39  C 10  Y    0.055535   0.076213  -0.255388   0.129099   0.129603
   40  C 10  Z    0.024844  -0.032297  -0.027178  -0.003376   0.053526
   41  C 11  S   -0.170237   0.050424   0.154548  -0.146199   0.034904
   42  C 11  X   -0.025208  -0.099625   0.000787  -0.039989   0.053921
   43  C 11  Y    0.040290  -0.072218   0.092532   0.004797   0.091504
   44  C 11  Z   -0.155252   0.054871  -0.217812  -0.071294  -0.149030
   45  C 12  S    0.204253  -0.046287   0.077424   0.161308   0.058717
   46  C 12  X   -0.000890   0.194371  -0.018130   0.024220   0.021701
   47  C 12  Y   -0.003787   0.089559   0.083464   0.031244   0.062358
   48  C 12  Z   -0.046133  -0.012147   0.256426  -0.056575   0.138161
   49  C 13  S    0.021220   0.231896  -0.031426  -0.025248  -0.176544
   50  C 13  X   -0.143339   0.014620   0.103533  -0.006646  -0.017380
   51  C 13  Y   -0.001872   0.067035  -0.011216   0.240828   0.076149
   52  C 13  Z   -0.003864   0.069697  -0.013535   0.215070   0.111619
   53  C 14  S   -0.008198  -0.169672  -0.000757   0.040781  -0.148024
   54  C 14  X    0.213271  -0.014474   0.037537   0.007339   0.004272
   55  C 14  Y   -0.009337  -0.001142  -0.005153  -0.218843   0.100064
   56  C 14  Z    0.007127   0.003109   0.005410   0.253625  -0.134145
   57  C 15  S    0.167689  -0.014387  -0.141852  -0.135503   0.057172
   58  C 15  X    0.000746   0.113293   0.007684   0.031313  -0.049067
   59  C 15  Y   -0.063496  -0.091329  -0.074621   0.010792   0.092888
   60  C 15  Z    0.174310   0.082241   0.172556  -0.075479  -0.149465
   61  C 16  S   -0.217512  -0.057059  -0.042019   0.159741   0.037731
   62  C 16  X   -0.017397  -0.188426   0.047634  -0.018748  -0.012925
   63  C 16  Y    0.001107   0.063627  -0.092884   0.038937   0.061913
   64  C 16  Z    0.029105  -0.067171  -0.220555  -0.044380   0.157839
   65  C 17  S   -0.005813  -0.127063   0.044268   0.150351   0.045295
   66  C 17  X   -0.166433   0.035657   0.120679  -0.013735  -0.008669
   67  C 17  Y    0.006684  -0.018773  -0.014380   0.306599  -0.190715
   68  C 17  Z   -0.002909   0.013311   0.001846  -0.056674   0.089068
   69  C 18  S    0.176218   0.035614  -0.136407   0.122322   0.127067
   70  C 18  X    0.007416   0.108201  -0.027376  -0.019699   0.001523
   71  C 18  Y    0.109486  -0.087014   0.225468  -0.122549   0.106038
   72  C 18  Z   -0.032598   0.067444  -0.057615  -0.004711  -0.050575
   73  C 19  S    0.001307  -0.103964   0.040458  -0.164400   0.058756
   74  C 19  X    0.180346   0.001333   0.046871  -0.000374  -0.000035
   75  C 19  Y    0.014708   0.086218  -0.021637  -0.268585  -0.200389
   76  C 19  Z    0.001769   0.033086  -0.010088  -0.055420  -0.071100
   77  C 20  S    0.005440  -0.110144   0.117140   0.004806   0.006447
   78  C 20  X   -0.007995   0.009709  -0.034715  -0.049496  -0.035000
   79  C 20  Y   -0.140486  -0.140197   0.096500   0.081356  -0.077882
   80  C 20  Z   -0.091201  -0.053554  -0.025836  -0.037168  -0.098431
   81  C 21  S    0.004322  -0.030438   0.037519  -0.007665  -0.008140
   82  C 21  X    0.000573  -0.010398   0.011350   0.009440   0.005485
   83  C 21  Y   -0.003069   0.006852   0.008460  -0.006817  -0.131034
   84  C 21  Z   -0.000194   0.001787   0.002389   0.124521   0.000881
   85  C 22  S    0.023781   0.238537   0.071514   0.003471   0.000552
   86  C 22  X   -0.019938  -0.065791  -0.025972   0.064037  -0.027909
   87  C 22  Y    0.165987   0.054236   0.016859  -0.097105  -0.104425
   88  C 22  Z   -0.083668   0.081304   0.050736   0.000836   0.118471
   89  C 23  S    0.007233   0.224663  -0.026814   0.125871   0.119760
   90  C 23  X    0.192240   0.005333   0.061660  -0.004100   0.000120
   91  C 23  Y   -0.000290   0.027952  -0.003072  -0.026974  -0.097837
   92  C 23  Z    0.026388   0.097522  -0.005750   0.052373  -0.352383
   93  C 24  S    0.188134  -0.098118  -0.113857   0.055532  -0.151594
   94  C 24  X   -0.008319  -0.208449   0.020067   0.032264   0.045882
   95  C 24  Y   -0.107524  -0.094781  -0.137013  -0.115315   0.002008
   96  C 24  Z   -0.100428   0.015746  -0.191784  -0.121266  -0.059313
   97  C 25  S   -0.220579   0.018598  -0.071006  -0.115438   0.112522
   98  C 25  X   -0.001891   0.063260  -0.042705   0.067033   0.018519
   99  C 25  Y   -0.068170   0.154113   0.245119   0.113411   0.136748
  100  C 25  Z   -0.022480  -0.014353   0.054767  -0.015046   0.041970
  101  C 26  S    0.027678  -0.082231   0.133660  -0.004713   0.004925
  102  C 26  X    0.001981  -0.012118  -0.050069   0.015700   0.067041
  103  C 26  Y   -0.016973   0.012986  -0.080946  -0.003769   0.070546
  104  C 26  Z    0.162170  -0.209208  -0.004482   0.167833   0.007220

                     26         27         28         29         30
                   -0.6535    -0.6337    -0.6046    -0.6019    -0.5960
                     A          A          A          A          A   
    1  C  1  S    0.069684   0.106543  -0.095458   0.013467   0.004640
    2  C  1  X   -0.128481   0.097393   0.017914  -0.033331  -0.133463
    3  C  1  Y    0.047828   0.043779   0.025596  -0.248716  -0.103296
    4  C  1  Z   -0.092741  -0.069316  -0.000764  -0.080522   0.145309
    5  C  2  S    0.046411  -0.009717   0.086761   0.109938  -0.063243
    6  C  2  X   -0.067222  -0.159443   0.017315  -0.126234  -0.020891
    7  C  2  Y   -0.002862   0.001311  -0.086597   0.043977  -0.151038
    8  C  2  Z   -0.154080   0.087447  -0.009864   0.048825   0.060966
    9  C  3  S    0.066760  -0.242677  -0.024836  -0.004851   0.010652
   10  C  3  X   -0.178842   0.049735  -0.012563   0.015065   0.055991
   11  C  3  Y    0.007630   0.041578   0.000607   0.070562   0.287671
   12  C  3  Z   -0.018720  -0.017666   0.078943  -0.033133  -0.085831
   13  C  4  S    0.063019   0.070423   0.067561  -0.018596  -0.130044
   14  C  4  X   -0.137760   0.144267   0.015581   0.055284   0.229436
   15  C  4  Y   -0.142073  -0.120057  -0.045635  -0.035753  -0.090657
   16  C  4  Z   -0.008727   0.009439  -0.009442   0.290464  -0.074226
   17  C  5  S    0.044746  -0.005413  -0.012910   0.073848  -0.084984
   18  C  5  X   -0.000219   0.178964   0.285639  -0.019832   0.078182
   19  C  5  Y   -0.172201   0.000297   0.007867   0.005196   0.013501
   20  C  5  Z   -0.115973   0.020574   0.045332   0.004982   0.118924
   21  C  6  S    0.064522  -0.000571  -0.069666  -0.096493   0.013793
   22  C  6  X   -0.065189  -0.158082  -0.176613   0.149342  -0.120340
   23  C  6  Y   -0.158691   0.066252   0.162620   0.019506   0.133263
   24  C  6  Z   -0.092593   0.053260  -0.064780  -0.078261   0.036139
   25  C  7  S    0.067470  -0.003238   0.082005  -0.096261  -0.003128
   26  C  7  X    0.069300  -0.142535  -0.134233  -0.089848   0.017316
   27  C  7  Y   -0.148524  -0.053337  -0.130596   0.017804  -0.063643
   28  C  7  Z   -0.093606  -0.044585   0.083566  -0.066695   0.082270
   29  C  8  S    0.066921   0.082872   0.062345  -0.010549   0.052721
   30  C  8  X   -0.124122   0.108155  -0.042480   0.004454  -0.022678
   31  C  8  Y    0.078186   0.021284   0.025913   0.185803  -0.091821
   32  C  8  Z    0.120041   0.095214  -0.006440  -0.119877  -0.016128
   33  C  9  S    0.069863  -0.015107   0.006581   0.077933   0.061456
   34  C  9  X   -0.068711  -0.195945   0.080767  -0.206359   0.051461
   35  C  9  Y   -0.155681   0.092248  -0.175440   0.012127   0.022948
   36  C  9  Z    0.109757  -0.051165  -0.150134  -0.123083  -0.055288
   37  C 10  S    0.073439  -0.007311   0.041558  -0.058864  -0.001990
   38  C 10  X   -0.079967  -0.191732   0.132070   0.145787  -0.084135
   39  C 10  Y   -0.013637  -0.003471   0.209820  -0.038986  -0.022326
   40  C 10  Z    0.178894  -0.100476   0.124682   0.065847  -0.079758
   41  C 11  S    0.066618  -0.013713  -0.072421   0.086939  -0.091215
   42  C 11  X   -0.064918  -0.127019  -0.172682  -0.092939   0.120800
   43  C 11  Y    0.147382  -0.059666   0.010620  -0.053095   0.001768
   44  C 11  Z    0.095700  -0.029480  -0.183413   0.039379   0.090863
   45  C 12  S    0.041511  -0.018227   0.049891  -0.117141   0.011531
   46  C 12  X   -0.062712  -0.157465  -0.037247   0.164336   0.214180
   47  C 12  Y    0.130284  -0.075458   0.040294   0.074026   0.061464
   48  C 12  Z   -0.069834   0.035865   0.100713   0.050696  -0.140229
   49  C 13  S    0.047690  -0.008562   0.013546   0.109480   0.066531
   50  C 13  X    0.003746   0.199787   0.056036   0.037786  -0.233303
   51  C 13  Y    0.127773   0.002317   0.009719   0.055003   0.075339
   52  C 13  Z   -0.097383   0.005272  -0.006394   0.076331   0.035098
   53  C 14  S    0.041117   0.005075   0.001922  -0.097933   0.038835
   54  C 14  X   -0.002376   0.171364   0.305696  -0.019084  -0.069990
   55  C 14  Y    0.191143   0.010932   0.015492   0.003518   0.031581
   56  C 14  Z    0.086688  -0.004014  -0.004941   0.002506   0.004052
   57  C 15  S    0.067190  -0.000099   0.072154   0.077110  -0.023956
   58  C 15  X    0.072348  -0.154200  -0.177269   0.132406   0.003999
   59  C 15  Y    0.160907   0.087078   0.017621  -0.074394   0.100328
   60  C 15  Z    0.093670   0.017122   0.199487   0.058392  -0.085819
   61  C 16  S    0.051285   0.018559  -0.057044  -0.113703  -0.067706
   62  C 16  X    0.061912  -0.159243  -0.042803  -0.209241   0.084435
   63  C 16  Y    0.140430   0.079592  -0.013473   0.080346   0.076426
   64  C 16  Z   -0.068896  -0.030238  -0.114845   0.010969   0.141771
[...]
   56  C 14  Z   -0.169038   0.078412   0.036089   0.160012  -0.126121
   57  C 15  S   -0.030380   0.023160  -0.018767  -0.022853   0.025601
   58  C 15  X   -0.123878   0.024532  -0.063025  -0.073370   0.067226
   59  C 15  Y   -0.247309   0.012152  -0.072246  -0.213851   0.190336
   60  C 15  Z   -0.085606   0.006855  -0.049857  -0.087931   0.076013
   61  C 16  S    0.022811  -0.029710  -0.015655  -0.015152  -0.000469
   62  C 16  X    0.048028  -0.082599  -0.091871  -0.036396   0.021876
   63  C 16  Y    0.100839  -0.121533  -0.272731  -0.018186   0.078322
   64  C 16  Z   -0.022639   0.039509   0.081685   0.047154  -0.048759
   65  C 17  S    0.007857   0.020989  -0.004114  -0.008222  -0.052916
   66  C 17  X   -0.011903   0.002334  -0.024608  -0.011301  -0.023784
   67  C 17  Y    0.015593   0.012316  -0.010268  -0.005144  -0.037097
   68  C 17  Z   -0.007707   0.123067  -0.016726   0.088244  -0.320757
   69  C 18  S    0.010190   0.021345   0.033601   0.008518   0.013019
   70  C 18  X   -0.012815   0.101863   0.116422  -0.053469   0.029877
   71  C 18  Y   -0.016782  -0.075745  -0.031284   0.001133  -0.021782
   72  C 18  Z   -0.011698  -0.269333  -0.194810   0.083200  -0.115971
   73  C 19  S   -0.004576  -0.026644   0.023286  -0.026637  -0.019307
   74  C 19  X   -0.010728  -0.025678  -0.022433  -0.008555  -0.008034
   75  C 19  Y   -0.029600  -0.037018   0.016437  -0.012503  -0.014131
   76  C 19  Z    0.096235   0.283253  -0.222015   0.069021   0.169498
   77  C 20  S    0.027937   0.071639  -0.053506   0.027415   0.027450
   78  C 20  X    0.165835   0.286871  -0.193831   0.130220   0.034594
   79  C 20  Y    0.083736   0.148185  -0.062345   0.066522  -0.010967
   80  C 20  Z   -0.142638  -0.209857   0.172488  -0.142903   0.036005
   81  C 21  S    0.013138  -0.013454  -0.001003   0.029914  -0.082906
   82  C 21  X    0.071681  -0.065344  -0.034456   0.200809  -0.332929
   83  C 21  Y   -0.031640  -0.034002  -0.025174   0.032349  -0.005543
   84  C 21  Z    0.015783   0.019586  -0.046486   0.047950  -0.013479
   85  C 22  S    0.018201  -0.014516   0.026623  -0.044596   0.034249
   86  C 22  X    0.069796  -0.048912   0.198844  -0.244886   0.136940
   87  C 22  Y    0.062034  -0.015372   0.112215  -0.103406   0.026789
   88  C 22  Z    0.045764  -0.048883   0.163281  -0.181622   0.045256
   89  C 23  S   -0.007994   0.020903  -0.004225   0.008214  -0.052984
   90  C 23  X   -0.011889  -0.002311   0.024681  -0.011179   0.023669
   91  C 23  Y    0.001959  -0.112227   0.019610   0.073789   0.296375
   92  C 23  Z    0.017035   0.050856   0.000682  -0.048549  -0.128339
   93  C 24  S    0.021929  -0.013189  -0.026640  -0.018907  -0.007344
   94  C 24  X    0.048116  -0.015465  -0.067703   0.020855   0.001942
   95  C 24  Y   -0.061007   0.039935   0.134744  -0.069237  -0.093864
   96  C 24  Z    0.041595  -0.040805  -0.150960   0.092457   0.042136
   97  C 25  S    0.006951   0.002724   0.028341   0.017934   0.044876
   98  C 25  X    0.104446   0.013200   0.054523  -0.000854   0.074581
   99  C 25  Y   -0.047631  -0.008381  -0.043208   0.017727  -0.025940
  100  C 25  Z    0.221667   0.042345   0.151298  -0.058606   0.231577
  101  C 26  S   -0.054291  -0.048807  -0.024589   0.054193   0.047297
  102  C 26  X   -0.239447  -0.222857  -0.133881   0.181768   0.083231
  103  C 26  Y    0.216119   0.215200   0.131198  -0.200925  -0.009939
  104  C 26  Z   -0.008715  -0.005802   0.031386  -0.031484   0.006584

                     56         57         58         59         60
                   -0.0658    -0.0467    -0.0460    -0.0424    -0.0405
                     A          A          A          A          A   
    1  C  1  S   -0.024898  -0.010841   0.154788  -0.149540  -0.171419
    2  C  1  X    0.062071   0.022680  -0.171070   0.125418   0.196706
    3  C  1  Y   -0.062506  -0.015657   0.101120   0.009542  -0.023609
    4  C  1  Z    0.020279  -0.030429  -0.200374   0.034392   0.068879
    5  C  2  S   -0.042502  -0.086059  -0.191659   0.079461   0.029942
    6  C  2  X    0.089660   0.062927   0.150732  -0.066250  -0.094821
    7  C  2  Y    0.075316   0.097032   0.064940   0.027478   0.057160
    8  C  2  Z    0.232761   0.121350   0.151261  -0.074511  -0.003087
    9  C  3  S    0.009149   0.042453  -0.000382   0.232423   0.242409
   10  C  3  X   -0.019437  -0.104932  -0.023545  -0.214543  -0.306332
   11  C  3  Y    0.003472  -0.066179  -0.042386   0.003014   0.000330
   12  C  3  Z   -0.004589  -0.028788   0.054647   0.021636   0.000933
   13  C  4  S    0.014359  -0.149266  -0.081145  -0.165165  -0.188430
   14  C  4  X   -0.004919   0.156251   0.065771   0.164867   0.199360
   15  C  4  Y   -0.019676   0.199214   0.112182   0.094150   0.116800
   16  C  4  Z    0.052801  -0.002844   0.024913  -0.002123   0.001924
   17  C  5  S    0.038803  -0.007454  -0.031760  -0.019071   0.019532
   18  C  5  X    0.053797   0.061623   0.110999  -0.026160   0.022309
   19  C  5  Y   -0.034109  -0.004881   0.090661  -0.032998  -0.024352
   20  C  5  Z    0.005024   0.006592   0.033795   0.043383  -0.000862
   21  C  6  S    0.020649   0.130211   0.175633   0.040208   0.053311
   22  C  6  X   -0.072174  -0.121790  -0.115839  -0.049841  -0.109331
   23  C  6  Y   -0.084268  -0.087380  -0.082904  -0.032571  -0.032409
   24  C  6  Z   -0.134741  -0.069317  -0.157111   0.063068   0.033168
   25  C  7  S   -0.061387  -0.098242  -0.118113   0.086359  -0.050936
   26  C  7  X   -0.082963  -0.115488  -0.095046   0.089602  -0.102336
   27  C  7  Y    0.152398   0.142686   0.049525  -0.122336   0.094648
   28  C  7  Z    0.170261   0.111187   0.135299  -0.029266   0.004966
   29  C  8  S   -0.008114   0.097935  -0.057972  -0.192032  -0.173555
   30  C  8  X   -0.025803  -0.122054   0.070208   0.198751   0.202414
   31  C  8  Y    0.058218   0.088409  -0.054675  -0.044722  -0.030077
   32  C  8  Z   -0.012963   0.164780  -0.062815  -0.093182  -0.069647
   33  C  9  S   -0.070745   0.182022   0.027846   0.081642   0.062772
   34  C  9  X    0.131977  -0.160380  -0.051408  -0.065806  -0.103355
   35  C  9  Y    0.123963  -0.122362  -0.047570  -0.156948  -0.045760
   36  C  9  Z   -0.188907   0.124229  -0.009328  -0.001452  -0.029570
   37  C 10  S    0.108955  -0.152982   0.015508   0.107813   0.028636
   38  C 10  X   -0.140362   0.136474  -0.016850  -0.068920  -0.092162
   39  C 10  Y   -0.091890   0.074465   0.040929   0.082790   0.063834
   40  C 10  Z    0.335816  -0.139395  -0.002420   0.133614   0.009004
   41  C 11  S   -0.061509  -0.098803   0.117290   0.086530   0.050860
   42  C 11  X    0.083069   0.116021  -0.094262  -0.089542  -0.102255
   43  C 11  Y   -0.223519  -0.168168   0.140539   0.086657   0.051348
   44  C 11  Z   -0.046785  -0.067784  -0.025410   0.091172   0.079438
   45  C 12  S    0.056575   0.064725  -0.153990   0.045608   0.054924
   46  C 12  X   -0.099996  -0.035567   0.170172  -0.026556  -0.098349
   47  C 12  Y    0.182654   0.066523  -0.214085  -0.000654   0.050602
   48  C 12  Z   -0.023738   0.043997   0.057354  -0.068929  -0.073357
   49  C 13  S    0.012305   0.010738  -0.024255  -0.047129  -0.033246
   50  C 13  X    0.051683   0.070638  -0.102475  -0.009553   0.017345
   51  C 13  Y    0.093736   0.072365  -0.030571  -0.064370  -0.012413
   52  C 13  Z   -0.064908  -0.042796   0.036044   0.028089   0.031463
   53  C 14  S    0.038794  -0.007757   0.032009  -0.019121  -0.019370
   54  C 14  X   -0.053878  -0.062183   0.110612   0.026354   0.022291
   55  C 14  Y    0.012634  -0.003741   0.074831  -0.020908  -0.012776
   56  C 14  Z    0.032098   0.007061   0.061749   0.050333  -0.020427
   57  C 15  S    0.020837   0.131206  -0.175276   0.039979  -0.053385
   58  C 15  X    0.072345   0.122346  -0.115286   0.049681  -0.109230
   59  C 15  Y    0.158905   0.104581  -0.176933  -0.038624   0.012562
   60  C 15  Z    0.005621   0.040900   0.006947   0.059789  -0.044598
   61  C 16  S   -0.042511  -0.087049   0.191219   0.079800  -0.029835
   62  C 16  X   -0.089564  -0.063619   0.150353   0.066591  -0.094845
   63  C 16  Y   -0.239266  -0.154462   0.162766   0.051033   0.025747
   64  C 16  Z    0.051200  -0.023235  -0.019496  -0.061191   0.051114
   65  C 17  S   -0.052278  -0.016459  -0.006734  -0.114511   0.019303
   66  C 17  X    0.079859  -0.113881  -0.006487   0.004429   0.010338
   67  C 17  Y   -0.030677  -0.002979  -0.021032  -0.032178   0.013302
   68  C 17  Z   -0.121356  -0.025947   0.002513  -0.205294   0.009685
   69  C 18  S    0.056572   0.064013   0.154406   0.045901  -0.054798
   70  C 18  X    0.099941   0.034765   0.170300   0.026902  -0.098155
   71  C 18  Y   -0.070710  -0.071091  -0.057928   0.059959  -0.038305
   72  C 18  Z   -0.169885  -0.034560  -0.214208  -0.034266   0.080281
   73  C 19  S    0.012308   0.010570   0.024318  -0.047073   0.033199
   74  C 19  X   -0.051699  -0.070135  -0.102843   0.009414   0.017292
   75  C 19  Y    0.009314   0.000730   0.015951   0.007902   0.021099
   76  C 19  Z   -0.113665  -0.083783  -0.044872   0.069759  -0.026511
   77  C 20  S   -0.025003  -0.010125  -0.154666  -0.149955   0.171236
   78  C 20  X   -0.062091  -0.021814  -0.170825  -0.125889   0.196574
   79  C 20  Y    0.013709   0.034803  -0.122733  -0.034831   0.047874
   80  C 20  Z    0.064192  -0.002587   0.187839   0.009361  -0.054909
   81  C 21  S    0.009401   0.042483   0.000163   0.232654  -0.242228
   82  C 21  X    0.019998   0.105141  -0.023391   0.214882  -0.306207
   83  C 21  Y    0.002273   0.057981   0.026489  -0.020148   0.000872
   84  C 21  Z   -0.005240   0.043223  -0.063836   0.008038  -0.000100
   85  C 22  S    0.014080  -0.149731   0.080769  -0.165117   0.188341
   86  C 22  X    0.004592  -0.156693   0.065184  -0.164983   0.199202
   87  C 22  Y   -0.036072  -0.097640   0.077313  -0.045218   0.060035
   88  C 22  Z    0.043199  -0.174354   0.083895  -0.082421   0.100067
   89  C 23  S   -0.052180  -0.016618   0.006645  -0.114681  -0.019612
   90  C 23  X   -0.079940   0.113897  -0.005936  -0.004553   0.010286
   91  C 23  Y    0.120073   0.024291  -0.008322   0.194047   0.015540
   92  C 23  Z   -0.034026  -0.010323  -0.019380  -0.074963   0.006518
   93  C 24  S    0.108906  -0.152823  -0.016394   0.108032  -0.028461
   94  C 24  X    0.140608  -0.136466  -0.017626   0.069011  -0.092050
   95  C 24  Y   -0.244882   0.083351   0.018840  -0.157131   0.039243
   96  C 24  Z    0.247528  -0.134292   0.036169  -0.004788   0.051057
   97  C 25  S   -0.070591   0.182079  -0.027055   0.081429  -0.062676
   98  C 25  X   -0.131983   0.160759  -0.050819   0.065679  -0.103420
   99  C 25  Y    0.101597  -0.046098  -0.032174   0.079853  -0.048354
  100  C 25  Z   -0.201906   0.168341  -0.035907   0.134846  -0.024713
  101  C 26  S   -0.008278   0.097649   0.058884  -0.192208   0.173491
  102  C 26  X    0.025627   0.121649   0.071277  -0.198780   0.202269
  103  C 26  Y   -0.017878  -0.186425  -0.082949   0.103021  -0.075340
  104  C 26  Z   -0.056911   0.005914  -0.015932  -0.007910   0.008666

                     61         62
                   -0.0365    -0.0324
                     A          A   
    1  C  1  S    0.045113  -0.021775
    2  C  1  X   -0.125387  -0.003811
    3  C  1  Y    0.047884   0.029523
    4  C  1  Z   -0.061139   0.007021
    5  C  2  S    0.028134   0.120505
    6  C  2  X   -0.002673  -0.031004
    7  C  2  Y   -0.097165   0.014116
    8  C  2  Z    0.030289  -0.234711
    9  C  3  S   -0.075922   0.023764
   10  C  3  X    0.028641  -0.054146
   11  C  3  Y   -0.018531  -0.041593
   12  C  3  Z    0.020340  -0.020533
   13  C  4  S    0.069880  -0.027902
   14  C  4  X    0.003099   0.102108
   15  C  4  Y    0.000852   0.089042
   16  C  4  Z   -0.031560   0.006753
   17  C  5  S    0.203411  -0.118872
   18  C  5  X   -0.014000  -0.011647
   19  C  5  Y   -0.330353   0.210007
   20  C  5  Z   -0.061119   0.052838
   21  C  6  S   -0.147856   0.024333
   22  C  6  X    0.063235  -0.028093
   23  C  6  Y    0.194556  -0.170501
   24  C  6  Z    0.119658  -0.005865
   25  C  7  S   -0.098474   0.032427
   26  C  7  X    0.017667  -0.009274
   27  C  7  Y    0.121620  -0.160859
   28  C  7  Z    0.028709  -0.033058
   29  C  8  S    0.064570  -0.004734
   30  C  8  X   -0.024957  -0.058493
   31  C  8  Y    0.003399   0.044196
   32  C  8  Z    0.006774   0.052253
   33  C  9  S    0.045978  -0.036086
   34  C  9  X    0.006597  -0.023105
   35  C  9  Y   -0.162514   0.012340
   36  C  9  Z    0.084727  -0.034518
   37  C 10  S    0.024866   0.044124
   38  C 10  X    0.047275  -0.002271
   39  C 10  Y    0.035269  -0.015494
   40  C 10  Z    0.100279   0.031377
   41  C 11  S   -0.099306  -0.032091
   42  C 11  X   -0.017281  -0.009194
   43  C 11  Y   -0.086915  -0.108823
   44  C 11  Z   -0.091603  -0.122345
   45  C 12  S   -0.014750  -0.082747
   46  C 12  X    0.039916  -0.036253
   47  C 12  Y   -0.098094  -0.144626
   48  C 12  Z    0.105202   0.109580
   49  C 13  S    0.034010   0.238075
   50  C 13  X   -0.026631  -0.005121
   51  C 13  Y    0.051684   0.238736
   52  C 13  Z   -0.035998  -0.311069
   53  C 14  S    0.204251   0.118062
   54  C 14  X    0.013798  -0.011731
   55  C 14  Y    0.219229   0.149898
   56  C 14  Z    0.256426   0.154431
   57  C 15  S   -0.148305  -0.023752
   58  C 15  X   -0.063439  -0.027794
   59  C 15  Y   -0.201525  -0.089478
   60  C 15  Z   -0.109264  -0.144208
   61  C 16  S    0.027867  -0.120608
   62  C 16  X    0.002476  -0.030951
   63  C 16  Y    0.021762  -0.196382
   64  C 16  Z    0.099909   0.129319
   65  C 17  S   -0.171033  -0.068015
   66  C 17  X   -0.020701  -0.001973
   67  C 17  Y   -0.132052  -0.060020
   68  C 17  Z   -0.250321  -0.096176
   69  C 18  S   -0.014971   0.082864
   70  C 18  X   -0.040167  -0.036049
   71  C 18  Y   -0.041578   0.022630
   72  C 18  Z    0.137266  -0.180617
   73  C 19  S    0.033516  -0.238163
   74  C 19  X    0.026693  -0.005093
   75  C 19  Y    0.004864  -0.150043
   76  C 19  Z   -0.061472   0.362621
   77  C 20  S    0.045262   0.021566
   78  C 20  X    0.125405  -0.004315
   79  C 20  Y    0.029083   0.020734
   80  C 20  Z   -0.072285   0.022343
   81  C 21  S   -0.075823  -0.023400
   82  C 21  X   -0.028629  -0.053957
   83  C 21  Y   -0.008735  -0.038574
   84  C 21  Z    0.026082  -0.025793
   85  C 22  S    0.070175   0.027557
   86  C 22  X   -0.002930   0.102038
   87  C 22  Y    0.027230   0.050227
   88  C 22  Z   -0.016158   0.073712
   89  C 23  S   -0.170845   0.068681
   90  C 23  X    0.020556  -0.002032
   91  C 23  Y    0.282414  -0.114350
   92  C 23  Z   -0.011214  -0.003855
   93  C 24  S    0.025056  -0.044184
   94  C 24  X   -0.047013  -0.002049
   95  C 24  Y   -0.104507   0.019763
   96  C 24  Z    0.019509  -0.029139
   97  C 25  S    0.045840   0.035909
   98  C 25  X   -0.006855  -0.023057
   99  C 25  Y    0.007920  -0.023700
  100  C 25  Z    0.183015   0.027223
  101  C 26  S    0.064019   0.004432
  102  C 26  X    0.024278  -0.058590
  103  C 26  Y   -0.006770   0.067325
  104  C 26  Z    0.000568   0.012133

     ----------------------------------------------------------------
     PROPERTY VALUES FOR THE RHF   SELF-CONSISTENT FIELD WAVEFUNCTION
     ----------------------------------------------------------------

                    -------------
                    MOPAC CHARGES
                    -------------
         ATOM NO.   TYPE          CHARGE        ATOM  ELECTRON DENSITY
           1         C             -0.0468          4.0468
           2         C              0.0613          3.9387
           3         C             -0.0062          4.0062
           4         C              0.0726          3.9274
           5         C              0.0106          3.9894
           6         C             -0.0130          4.0130
           7         C              0.0179          3.9821
           8         C             -0.0463          4.0463
           9         C             -0.0285          4.0285
          10         C              0.0373          3.9627
          11         C              0.0177          3.9823
          12         C              0.0023          3.9977
          13         C             -0.0356          4.0356
          14         C              0.0107          3.9893
          15         C             -0.0128          4.0128
          16         C              0.0611          3.9389
          17         C             -0.0255          4.0255
          18         C              0.0021          3.9979
          19         C             -0.0356          4.0356
          20         C             -0.0466          4.0466
          21         C             -0.0064          4.0064
          22         C              0.0728          3.9272
          23         C             -0.0254          4.0254
          24         C              0.0375          3.9625
          25         C             -0.0287          4.0287
          26         C             -0.0465          4.0465

          ---------------------
          ELECTROSTATIC MOMENTS
          ---------------------

 POINT   1           X           Y           Z (ANGS)      CHARGE
                 0.000000    0.000000    0.000000       -0.00 (A.U.)
         DX          DY          DZ         /D/  (DEBYE)
    -0.000774   -0.190588    0.332851    0.383555
 ...... END OF PROPERTY EVALUATION ......
 CPU     0: STEP CPU TIME=     0.05 TOTAL CPU TIME=          0.6 (      0.0 MIN)
 TOTAL WALL CLOCK TIME=          0.7 SECONDS, CPU UTILIZATION IS    94.84%
  $VIB   
          IVIB=   0 IATOM=   0 ICOORD=   0 E=     -112.0853372183
 -1.007868372E-04 2.669889783E-04-4.100599971E-04 4.872487205E-05-1.140218500E-04
 -1.242603517E-04-5.973503985E-04-2.356101193E-04 1.799285289E-04-5.795300178E-04
 -4.613005913E-05-4.956847221E-06-1.797982669E-04 8.424051038E-05 2.737198271E-04
  1.834587426E-04-5.173328607E-05-5.133048396E-04 1.767354952E-04 2.655381300E-04
 -3.847704035E-04-3.839062185E-05 2.322627110E-05 4.307099384E-04 1.034518089E-04
 -1.024272093E-04 3.397825402E-04-9.792454011E-05 9.224280970E-06 5.231707109E-05
 -2.851589228E-04 1.678442336E-04-3.044371880E-04-6.894672395E-05-3.557108490E-05
  4.657051284E-04 1.480254396E-04-5.373712508E-04-4.862203832E-04 2.143372421E-04
 -1.131363713E-04-9.392178548E-05-1.384969680E-04 6.030585768E-04-1.258435970E-04
 -1.058532856E-04 2.104027089E-04 1.499029444E-04-1.538176804E-04 4.503307713E-04
  1.430454470E-04-2.104054076E-05-4.019659953E-04 1.317226543E-04-7.543441951E-05
  4.869410670E-04 2.586310463E-04 1.688389666E-04 2.706216271E-04-3.612557884E-04
  5.904051464E-04-8.215664858E-05 2.492890640E-04 6.295952002E-04-6.733850659E-05
  6.230181967E-05-9.387452752E-05-3.515019585E-04-3.276053747E-04 7.939371893E-05
 -2.463770189E-08 1.085332278E-04-1.581388376E-05-3.554693705E-04 1.720206267E-04
  2.092510021E-04-3.439588075E-04 1.190266917E-04
 -7.736724689E-04-1.905877372E-01 3.328513951E-01
 ......END OF GEOMETRY SEARCH......
 CPU     0: STEP CPU TIME=     0.02 TOTAL CPU TIME=          0.6 (      0.0 MIN)
 TOTAL WALL CLOCK TIME=          0.7 SECONDS, CPU UTILIZATION IS    95.19%
                580000  WORDS OF DYNAMIC MEMORY USED
 EXECUTION OF GAMESS TERMINATED NORMALLY 21:02:21 22-MAY-2023    
 DDI: 263640 bytes (0.3 MB / 0 MWords) used by master data server.

 ----------------------------------------
 CPU timing information for all processes
 ========================================
 0: 0.562500 + 0.265625 = 0.828125
 1: 0.437500 + 0.187500 = 0.625000
 2: 0.203125 + 0.250000 = 0.453125
 3: 0.203125 + 0.187500 = 0.390625
 ----------------------------------------
           Disk usage (in bytes)       
 ========================================
 ----------------------------------------
            Local date and time          
 ========================================
22.05.2023 - 21:02:21,43                          
