          *******************************************************
          *                                                     *
          *          GAMESS VERSION = 30 SEP 2022 (R2)          *
          *                                                     *
          *              doi.org/10.1063/5.0005188              *
          *                                                     *
          *************** 64 BIT WINDOWS VERSION ****************

  GAMESS HAS BEEN MADE POSSIBLE WITH IMPORTANT CONTRIBUTIONS FROM
  THE FOLLOWING INDIVIDUALS (IN ALPHABETICAL ORDER):

     IVANA ADAMOVIC, CHRISTINE AIKENS, TOMOKO AKAMA,
     MELISA ALKAN, YURI ALEXEEV, YURIKO AOKI, POOJA ARORA,
     TOSHIO ASADA, ANDREY ASADCHEV, KIM K. BALDRIDGE,
     PRADIPTA BANDYOPADHYAY, TAYLOR A. BARNES, MARIA BARYSZ,
     ROB BELL, JONATHAN BENTZ, COLLEEN BERTONI,
     JERRY A. BOATZ, BRETT BODE, KURT BRORSEN, KURT R. BRORSEN,
     LAIMUTIS BYTAUTAS, CALEB CARLIN, LAURA CARRINGTON,
     GALINA CHABAN, BENOIT CHAMPAGNE, WEI CHEN, MAHITO CHIBA,
     DAN CHIPMAN, CHEOL HO CHOI, TANNER CULPITT,
     DIPAYAN DATTA, PAUL DAY, ALBERT DEFUSCO,
     NUWAN DESILVA, J. EMILIANO DEUSTUA,
     TIM DUDLEY, MICHEL DUPUIS, STEVEN T. ELBERT,
     DMITRI FEDOROV, KATHERINE FERRERAS, MICHAEL FILATOV,
     ALEX FINDLATER,GRAHAM FLETCHER, MARK FREITAG,
     CHRISTIAN FRIEDL, DAVID GARMER, 
     IGOR S. GERASIMOV, KURT GLAESEMANN,
     MARK S. GORDON, JEFFREY GOUR, FENG LONG GU,
     EMILIE B. GUIDEZ, ANASTASIA GUNINA, SHARON HAMMES-SCHIFFER,
     MASATAKE HARUTA, KIMIHIKO HIRAO, YASUHIRO IKABATA,
     TZVETELIN IORDANOV, STEPHAN IRLE, KAZUYA ISHIMURA,
     JOE IVANIC, FRANK JENSEN, JAN H. JENSEN, VISVALDAS KAIRYS,
     MUNEAKI KAMIYA, MICHIO KATOUDA, NAOAKI KAWAKAMI, DAN KEMP,
     BERNARD KIRTMAN, KAZUO KITAURA, MARIUSZ KLOBUKOWSKI,
     MASATO KOBAYASHI, KONSTANTIN KOMAROV, PRAKASHAN KORAMBATH,
     JACEK KORCHOWIEC, SHIRO KOSEKI, KAROL KOWALSKI,
     JIMMY KROMANN, STANISLAW KUCHARSKI, HENRY KURTZ,
     SAROM SOK LEANG, SEUNGHOON LEE, HUI LI, SHUHUA LI, WEI LI,
     JESSE LUTZ, ALEKSANDR O. LYKHIN, MARCIN MAKOWSKI,
     JOANI MATO, NIKITA MATSUNAGA, BENEDETTA MENNUCCI,
     GRANT MERRILL, NORIYUKI MINEZAWA, VLADIMIR MIRONOV,
     EISAKU MIYOSHI, JOHN A. MONTGOMERY JR., HIROTOSHI MORI,
     JONATHAN MULLIN, MONIKA MUSIAL, SHIGERU NAGASE,
     TAKESHI NAGATA, HIROMI NAKAI, TAKAHITO NAKAJIMA,
     YUYA NAKAJIMA, HARUYUKI NAKANO, HIROYA NAKATA, SEAN NEDD,
     HEATHER NETZLOFF, KIET A. NGUYEN, YOSHIO NISHIMOTO,
     BOSILJKA NJEGIC, RYAN OLSON, MIKE PAK, ROBERTO PEVERATI,
     BUU PHAM, PIOTR PIECUCH, ANNA POMOGAEVA, DAVID POOLE,
     SPENCER PRUITT, OLIVIER QUINET, LUKE ROSKOP,
     KLAUS RUEDENBERG, ANDREW SAND, TOSAPORN SATTASATHUCHANA,
     NOZOMI SAWADA, MICHAEL W. SCHMIDT, PATRICK E. SCHNEIDER,
     JUNJI SEINO, PRACHI SHARMA, JUN SHEN, JIM SHOEMAKER,
     YINAN SHU, DEJUN SI, JONATHAN SKONE, LYUDMILA SLIPCHENKO,
     TONY SMITH, JIE SONG, MARK SPACKMAN, CASPER STEINMANN,
     WALT STEVENS, PEIFENG SU, SHUJUN SU, CHET SWALINA,
     CHINAMI TAKASHIMA, TETSUYA TAKETSUGU, ZHEN TAO,
     NANDUN THELLAMUREGE, SEIKEN TOKURA, JACOPO TOMASI,
     TSUGUKI TOUMA, TAKAO TSUNEDA, HIROAKI UMEDA,
     JORGE LUIS GALVEZ VALLEJO, YALI WANG, SIMON WEBB,
     AARON WEST, THERESA L. WINDUS, MARTA WLOCH,
     PENG XU, KIYOSHI YAGI, SUSUMU YANAGISAWA, YANG YANG,
     SOOHAENG YOO, TAKESHI YOSHIKAWA, FEDERICO ZAHARIEV,
     TOBY ZENG

  WHO ARE SUPPORTED BY THEIR INSTITUTION/UNIVERSITY/COMPANY/GROUP
  (IN ALPHABETICAL ORDER):

     EP ANALYTICS,
     FACULTES UNIVERSITAIRES NOTRE-DAME DE LA PAIX,
     INSTITUTE FOR MOLECULAR SCIENCE, IOWA STATE UNIVERSITY,
     JACKSON STATE UNIVERSITY, JOHANNES KEPLER UNIVERSITY LINZ,
     KYUNGPOOK NATIONAL UNIVERSITY
     KYUSHU UNIVERSITY, MICHIGAN STATE UNIVERSITY,
     MIE UNIVERSITY, THE MOLECULAR SCIENCES SOFTWARE INSTITUTE,
     MOSCOW STATE UNIVERSITY,
     N. COPERNICUS UNIVERSITY, NAGOYA UNIVERSITY,
     NANJING UNIVERSITY, NAT. INST. OF ADVANCED INDUSTRIAL
     SCIENCE AND TECHNOLOGY, NATIONAL INST. OF STANDARDS AND
     TECHNOLOGY, NESMEYANOV INSTITUTE OF ORGANOELEMENT COMPOUNDS
     OF RUSSIAN ACADEMY OF SCIENCES, OSAKA PREFECTURE UNIVERSITY,
     PENNSYLVANIA STATE UNIVERSITY, TOKYO INSTITUTE OF TECHNOLOGY,
     UNIVERSITY OF AARHUS, UNIVERSITY OF ALBERTA,
     UNIVERSITY OF CALIFORNIA AT SANTA BARBARA,
     UNIVERSITY OF COPENHAGEN, UNIVERSITY OF IOWA,
     UNIVERSITY OF MEMPHIS, UNIVERSITY OF MINNESOTA,
     UNIVERSITY OF NEBRASKA, UNIVERSITY OF NEW ENGLAND,
     UNIVERSITY OF NOTRE DAME, UNIVERSITY OF PISA,
     UNIVERSITY OF SILESIA, UNIVERSITY OF TOKYO,
     UNIVERSITY OF ZURICH, WASEDA UNIVERSITY,
     YALE UNIVERSITY

  GAMESS SOFTWARE MANAGEMENT TEAM FOR THIS RELEASE:
     MARK S. GORDON (TEAM LEAD),
     BRETT BODE (SENIOR ADVISOR),
     GIUSEPPE BARCA,
     COLLEEN BERTONI,
     KRISTOPHER KEIPERT (ADVISOR),
     SAROM S. LEANG (DEVELOPMENT LEAD),
     BUU PHAM,
     JACKSON HAYES (WEBSITE ADMINISTRATOR),
     PENG XU


 PARALLEL VERSION RUNNING ON        2 PROCESSORS IN        2 NODES.

 EXECUTION OF GAMESS BEGUN 21:02:29 22-MAY-2023    

            ECHO OF THE FIRST FEW INPUT CARDS -
 INPUT CARD>! (Energy/Geometry) PM3                                                         
 INPUT CARD> $CONTRL                                                                        
 INPUT CARD>COORD=UNIQUE                                                                    
 INPUT CARD>ICHARG=0                                                                        
 INPUT CARD>MAXIT=200                                                                       
 INPUT CARD>MULT=1                                                                          
 INPUT CARD>RUNTYP=OPTIMIZE                                                                 
 INPUT CARD>SCFTYP=RHF                                                                      
 INPUT CARD>UNITS=ANGS                                                                      
 INPUT CARD>! DFTTYP=PBE                                                                    
 INPUT CARD> $END                                                                           
 INPUT CARD> $DFT                                                                           
 INPUT CARD>METHOD=GRID                                                                     
 INPUT CARD> $END                                                                           
 INPUT CARD> $BASIS                                                                         
 INPUT CARD>! EXTFIL=.T.                                                                    
 INPUT CARD>! GBASIS=GEGSSBAS                                                               
 INPUT CARD>! NGAUSS=6                                                                      
 INPUT CARD>GBASIS=PM3                                                                      
 INPUT CARD>! NDFUNC=1                                                                      
 INPUT CARD>! NPFUNC=1                                                                      
 INPUT CARD> $END                                                                           
 INPUT CARD> $SCF                                                                           
 INPUT CARD>DAMP=.F.                                                                        
 INPUT CARD>DEM=.F.                                                                         
 INPUT CARD>DIIS=.F.                                                                        
 INPUT CARD>DIRSCF=.T.                                                                      
 INPUT CARD>EXTRAP=.T.                                                                      
 INPUT CARD>RSTRCT=.F.                                                                      
 INPUT CARD>SHIFT=.F.                                                                       
 INPUT CARD>SOSCF=.T.                                                                       
 INPUT CARD> $END                                                                           
 INPUT CARD> $STATPT                                                                        
 INPUT CARD>METHOD=QA                                                                       
 INPUT CARD>NSTEP=100                                                                       
 INPUT CARD>OPTTOL=0.001                                                                    
 INPUT CARD> $END                                                                           
 INPUT CARD> $GUESS                                                                         
 INPUT CARD>GUESS=HUCKEL                                                                    
 INPUT CARD> $END                                                                           
 INPUT CARD> $SYSTEM                                                                        
 INPUT CARD>MWORDS=10                                                                       
 INPUT CARD> $END                                                                           
 INPUT CARD> $DATA                                                                          
 INPUT CARD>C28 FULLERENE                                                                   
 INPUT CARD>C1                                                                              
 INPUT CARD>C	6.0	-1.47040	1.66800	-0.72320                                                 
 INPUT CARD>C	6.0	-0.17810	2.11390	-0.64910                                                 
 INPUT CARD>C	6.0	0.86210	1.54440	-1.36040                                                  
 INPUT CARD>C	6.0	-1.72660	0.49620	-1.43170                                                 
     10000000 WORDS OF MEMORY AVAILABLE

     BASIS OPTIONS
     -------------
     GBASIS=PM3          IGAUSS=       0      POLAR=NONE    
     NDFUNC=       0     NFFUNC=       0     DIFFSP=       F
     NPFUNC=       0      DIFFS=       F     BASNAM=        


     RUN TITLE
     ---------
 C28 FULLERENE                                                                   

 THE POINT GROUP OF THE MOLECULE IS C1      
 THE ORDER OF THE PRINCIPAL AXIS IS     0

 ATOM      ATOMIC                      COORDINATES (BOHR)
           CHARGE         X                   Y                   Z
 C           6.0    -2.7786530923        3.1520629475       -1.3666498343
 C           6.0    -0.3365601984        3.9946917654       -1.2266211386
 C           6.0     1.6291327740        2.9184928154       -2.5707832337
 C           6.0    -3.2628008904        0.9376820351       -2.7055206966
 C           6.0    -1.2184953169       -0.5223202630       -3.6165575953
 C           6.0     1.2727304527        0.4988876608       -3.6203370473
 C           6.0    -3.6653125258       -2.7826215169       -0.9775552534
 C           6.0    -4.8208799673       -0.4990766334       -1.1464967568
 C           6.0     3.7000834840        2.8542421319       -0.9973973763
 C           6.0     4.8399661998        0.5618155361       -1.1570792223
 C           6.0     3.3253508206       -0.9533667608       -2.7049537788
 C           6.0     2.8119122697        3.2782966435        1.4239085317
 C           6.0     0.3620714992        4.1256497764        1.3152492875
 C           6.0    -1.6444395545        2.9965384987        2.5649250831
 C           6.0     3.2879342460        0.9656499797        2.6301206297
 C           6.0     1.2232196319       -0.5107929345        3.4716156120
 C           6.0    -1.2736753157        0.5140054687        3.4995835567
 C           6.0     4.8543281173       -0.5654060155        1.1629373728
 C           6.0    -4.9023271573        0.5722090291        1.2135820293
 C           6.0    -3.7673577291        2.8623679536        1.0378375125
 C           6.0    -3.3678696553       -0.9692404591        2.6928595325
 C           6.0     1.6251643494       -2.9903024030        2.5346894673
 C           6.0     3.7352323873       -2.8546200771        0.9885156642
 C           6.0    -1.5917161995       -2.9373900753       -2.5462167959
 C           6.0     0.3684965676       -4.0542181341       -1.2375815494
 C           6.0     2.8145578861       -3.2131010969       -1.4316564083
 C           6.0    -0.3911732795       -4.1254608038        1.3101470273
 C           6.0    -2.8311874748       -3.2510845893        1.4573566817

          INTERNUCLEAR DISTANCES (ANGS.)
          ------------------------------

                1 C          2 C          3 C          4 C          5 C     

   1 C       0.0000000    1.3690716 *  2.4211272 *  1.3930994 *  2.4248371 *
   2 C       1.3690716 *  0.0000000    1.3828572 *  2.3721864 *  2.7442320 *
   3 C       2.4211272 *  1.3828572 *  0.0000000    2.7937743 *  2.4274085 *
   4 C       1.3930994 *  2.3721864 *  2.7937743 *  0.0000000    1.4140801 *
   5 C       2.4248371 *  2.7442320 *  2.4274085 *  1.4140801 *  0.0000000  
   6 C       2.8266266 *  2.3983080 *  1.4083548 *  2.4594206 *  1.4247635 *
   7 C       3.1820251    3.9978142    4.2026213    2.1811181 *  2.2488607 *
   8 C       2.2168661 *  3.3597337    3.9355648    1.3922936 *  2.3114155 *
   9 C       3.4375784    2.2230270 *  1.3767264 *  3.9270745    3.4479295  
  10 C       4.2596849    3.2871195    2.2364822 *  4.3699206    3.5073451  
  11 C       3.9566210    3.3500867    2.2380165 *  3.6270771    2.4629981 *
  12 C       3.3071492    2.2106318 *  2.2128209 *  4.0795689    3.9633635  
  13 C       2.2453961 *  1.3967013 *  2.2553085 *  3.3245402    3.6824249  
  14 C       2.1669088 *  2.1871531 *  3.2231138    3.1143141    3.7707183  
  15 C       4.0147105    3.2269622    3.0680700    4.4709052    4.1513593  
  16 C       3.8466604    3.5421583    3.6828361    4.1119310    3.9672170  
  17 C       3.0354916    3.1453956    3.7812004    3.4554683    3.8055344  
  18 C       4.6879486    3.8687817    3.1961651    4.8242866    4.0895718  
  19 C       2.2340579 *  3.2840643    4.1830595    2.2563676 *  3.2663082  
  20 C       1.3842835 *  2.2563253 *  3.4354733    2.2433448 *  3.3307161  
  21 C       3.0770615    3.7114830    4.3569782    3.0301995    3.5351374  
  22 C       4.5008915    4.3245783    4.1323196    4.3244198    3.8165082  
  23 C       4.8516565    4.3765038    3.7580191    4.6435094    3.7859568  
  24 C       3.3418553    3.7927839    3.5366241    2.2347379 *  1.4117717 *
  25 C       4.1617594    4.2756138    3.8154130    3.3576801    2.4048398 *
  26 C       4.4840879    4.1641866    3.3593081    3.9524270    2.8140894 *
  27 C       4.2934395    4.5018976    4.3880422    3.7421194    3.2594699  
  28 C       3.7034118    4.2967165    4.5578124    3.1334088    3.1658573  

                6 C          7 C          8 C          9 C         10 C     

   1 C       2.8266266 *  3.1820251    2.2168661 *  3.4375784    4.2596849  
   2 C       2.3983080 *  3.9978142    3.3597337    2.2230270 *  3.2871195  
   3 C       1.4083548 *  4.2026213    3.9355648    1.3767264 *  2.2364822 *
   4 C       2.4594206 *  2.1811181 *  1.3922936 *  3.9270745    4.3699206  
   5 C       1.4247635 *  2.2488607 *  2.3114155 *  3.4479295    3.5073451  
   6 C       0.0000000    3.4350438    3.5200394    2.2649497 *  2.2942608 *
   7 C       3.4350438    0.0000000    1.3572602 *  4.9080636    4.8371911  
   8 C       3.5200394    1.3572602 *  0.0000000    4.8463448    5.1430353  
   9 C       2.2649497 *  4.9080636    4.8463448    0.0000000    1.3574248 *
  10 C       2.2942608 *  4.8371911    5.1430353    1.3574248 *  0.0000000  
  11 C       1.4160035 *  3.9315930    4.3955567    2.2171238 *  1.3986459 *
  12 C       3.1546514    4.8631418    4.7074488    1.3831070 *  2.2546783 *
  13 C       3.2767446    4.4020737    3.8998343    2.2517805 *  3.2989804  
  14 C       3.8526723    3.7430374    3.1787546    3.3997040    4.1609860  
  15 C       3.4840258    4.5953950    4.7966096    2.1751396 *  2.1763773 *
  16 C       3.7908339    3.6987208    4.0251658    3.2375267    3.1598644  
  17 C       4.0014227    3.2028319    3.1393664    3.7581951    4.0668711  
  18 C       3.2119044    4.7943000    5.2638519    2.2259010 *  1.3649605 *
  19 C       4.1500280    2.2191511 *  1.3722188 *  4.8528056    5.3058411  
  20 C       3.8410803    3.1723339    2.1934084 *  4.0957405    4.8556511  
  21 C       4.2184097    2.1721271 *  2.1865300 *  4.6793447    4.8654022  
  22 C       3.7486899    3.3621767    4.1434553    3.7768440    3.2006103  
  23 C       3.2856518    4.0522224    4.8301426    3.1986212    2.2134572 *
  24 C       2.4346061 *  1.3783472 *  2.2657246 *  4.2315982    3.9437263  
  25 C       2.7611663 *  2.2423749 *  3.3290657    4.0606892    3.4011028  
  26 C       2.4218990 *  3.4449496    4.2908136    3.2528431    2.2716234 *
  27 C       3.6838813    2.2298896 *  3.2965688    4.4519942    3.9395313  
  28 C       3.9842306    1.3843846 *  2.2645124 *  4.9061989    4.7396112  

               11 C         12 C         13 C         14 C         15 C     

   1 C       3.9566210    3.3071492    2.2453961 *  2.1669088 *  4.0147105  
   2 C       3.3500867    2.2106318 *  1.3967013 *  2.1871531 *  3.2269622  
   3 C       2.2380165 *  2.2128209 *  2.2553085 *  3.2231138    3.0680700  
   4 C       3.6270771    4.0795689    3.3245402    3.1143141    4.4709052  
   5 C       2.4629981 *  3.9633635    3.6824249    3.7707183    4.1513593  
   6 C       1.4160035 *  3.1546514    3.2767446    3.8526723    3.4840258  
   7 C       3.9315930    4.8631418    4.4020737    3.7430374    4.5953950  
   8 C       4.3955567    4.7074488    3.8998343    3.1787546    4.7966096  
   9 C       2.2171238 *  1.3831070 *  2.2517805 *  3.3997040    2.1751396 *
  10 C       1.3986459 *  2.2546783 *  3.2989804    4.1609860    2.1763773 *
  11 C       0.0000000    3.1403938    3.7694164    4.3660231    3.0003484  
  12 C       3.1403938    0.0000000    1.3729609 *  2.4388342 *  1.4030563 *
  13 C       3.7694164    1.3729609 *  0.0000000    1.3862695 *  2.3827764 *
  14 C       4.3660231    2.4388342 *  1.3862695 *  0.0000000    2.8229049 *
  15 C       3.0003484    1.4030563 *  2.3827764 *  2.8229049 *  0.0000000  
  16 C       3.4605456    2.4292780 *  2.7439814 *  2.4449438 *  1.4150959 *
  17 C       4.1600369    2.8320506 *  2.3954235 *  1.4173677 *  2.4689525 *
  18 C       2.2104708 *  2.3074567 *  3.4380061    3.9912385    1.3950972 *
  19 C       4.8895803    4.3275130    3.3614700    2.2648127 *  4.4033703  
  20 C       4.6997027    3.4945273    2.2898781 *  1.3856746 *  3.9568183  
  21 C       4.5501810    4.0245839    3.4199828    2.2892028 *  3.6680597  
  22 C       3.1079244    3.4269095    3.8785196    3.6098069    2.2713647 *
  23 C       2.2089258 *  3.2900510    4.1061269    4.2880338    2.2130371 *
  24 C       2.8070892 *  4.5456480    4.3833876    4.1444431    4.2938154  
  25 C       2.3966208 *  4.3256666    4.5345033    4.3708932    3.6921752  
  26 C       1.3989304 *  3.7527773    4.3449753    4.5648998    3.0939487  
  27 C       3.3466337    4.2692610    4.3844572    3.8838877    3.3965419  
  28 C       4.1162813    4.5668491    4.2543122    3.4158739    3.9811533  

               16 C         17 C         18 C         19 C         20 C     

   1 C       3.8466604    3.0354916    4.6879486    2.2340579 *  1.3842835 *
   2 C       3.5421583    3.1453956    3.8687817    3.2840643    2.2563253 *
   3 C       3.6828361    3.7812004    3.1961651    4.1830595    3.4354733  
   4 C       4.1119310    3.4554683    4.8242866    2.2563676 *  2.2433448 *
   5 C       3.9672170    3.8055344    4.0895718    3.2663082    3.3307161  
   6 C       3.7908339    4.0014227    3.2119044    4.1500280    3.8410803  
   7 C       3.6987208    3.2028319    4.7943000    2.2191511 *  3.1723339  
   8 C       4.0251658    3.1393664    5.2638519    1.3722188 *  2.1934084 *
   9 C       3.2375267    3.7581951    2.2259010 *  4.8528056    4.0957405  
  10 C       3.1598644    4.0668711    1.3649605 *  5.3058411    4.8556511  
  11 C       3.4605456    4.1600369    2.2104708 *  4.8895803    4.6997027  
  12 C       2.4292780 *  2.8320506 *  2.3074567 *  4.3275130    3.4945273  
  13 C       2.7439814 *  2.3954235 *  3.4380061    3.3614700    2.2898781 *
  14 C       2.4449438 *  1.4173677 *  3.9912385    2.2648127 *  1.3856746 *
  15 C       1.4150959 *  2.4689525 *  1.3950972 *  4.4033703    3.9568183  
  16 C       0.0000000    1.4283354 *  2.2771799 *  3.5019354    3.4379157  
  17 C       1.4283354 *  0.0000000    3.5172366    2.2696896 *  2.2321906 *
  18 C       2.2771799 *  3.5172366    0.0000000    5.1980469    4.9102046  
  19 C       3.5019354    2.2696896 *  5.1980469    0.0000000    1.3557548 *
  20 C       3.4379157    2.2321906 *  4.9102046    1.3557548 *  0.0000000  
  21 C       2.4761162 *  1.4235234 *  4.4308375    1.3919362 *  2.2187558 *
  22 C       1.4186844 *  2.4602170 *  2.2568851 *  3.9967759    4.2851469  
  23 C       2.2432072 *  3.4596319    1.3515584 *  4.9188227    4.9915538  
  24 C       3.7428413    3.6877612    4.1308249    3.2367968    3.7870778  
  25 C       3.1512917    3.5892938    3.2645127    3.9313850    4.4312706  
  26 C       3.0800163    3.9217033    2.2390432 *  4.7589535    4.9168323  
  27 C       2.3868202 *  2.7546250 *  3.3556241    3.4468876    4.1093101  
  28 C       2.8003755 *  2.4118200 *  4.3109827    2.3046031 *  3.2803319  

               21 C         22 C         23 C         24 C         25 C     

   1 C       3.0770615    4.5008915    4.8516565    3.3418553    4.1617594  
   2 C       3.7114830    4.3245783    4.3765038    3.7927839    4.2756138  
   3 C       4.3569782    4.1323196    3.7580191    3.5366241    3.8154130  
   4 C       3.0301995    4.3244198    4.6435094    2.2347379 *  3.3576801  
   5 C       3.5351374    3.8165082    3.7859568    1.4117717 *  2.4048398 *
   6 C       4.2184097    3.7486899    3.2856518    2.4346061 *  2.7611663 *
   7 C       2.1721271 *  3.3621767    4.0522224    1.3783472 *  2.2423749 *
   8 C       2.1865300 *  4.1434553    4.8301426    2.2657246 *  3.3290657  
   9 C       4.6793447    3.7768440    3.1986212    4.2315982    4.0606892  
  10 C       4.8654022    3.2006103    2.2134572 *  3.9437263    3.4011028  
  11 C       4.5501810    3.1079244    2.2089258 *  2.8070892 *  2.3966208 *
  12 C       4.0245839    3.4269095    3.2900510    4.5456480    4.3256666  
  13 C       3.4199828    3.8785196    4.1061269    4.3833876    4.5345033  
  14 C       2.2892028 *  3.6098069    4.2880338    4.1444431    4.3708932  
  15 C       3.6680597    2.2713647 *  2.2130371 *  4.2938154    3.6921752  
  16 C       2.4761162 *  1.4186844 *  2.2432072 *  3.7428413    3.1512917  
  17 C       1.4235234 *  2.4602170 *  3.4596319    3.6877612    3.5892938  
  18 C       4.4308375    2.2568851 *  1.3515584 *  4.1308249    3.2645127  
  19 C       1.3919362 *  3.9967759    4.9188227    3.2367968    3.9313850  
  20 C       2.2187558 *  4.2851469    4.9915538    3.7870778    4.4312706  
  21 C       0.0000000    2.8516761 *  3.9921681    3.1071427    3.3015693  
  22 C       2.8516761 *  0.0000000    1.3861465 *  3.1824074    2.1780745 *
  23 C       3.9921681    1.3861465 *  0.0000000    3.3833247    2.2281727 *
  24 C       3.1071427    3.1824074    3.3833247    0.0000000    1.3801553 *
  25 C       3.3015693    2.1780745 *  2.2281727 *  1.3801553 *  0.0000000  
  26 C       4.1081660    2.1944079 *  1.3833085 *  2.4095592 *  1.3726371 *
  27 C       2.4096074 *  1.3853640 *  2.2911423 *  2.2278524 *  1.4073623 *
  28 C       1.4022007 *  2.4300546 *  3.4899577    2.2240114 *  2.2541767 *

               26 C         27 C         28 C     

   1 C       4.4840879    4.2934395    3.7034118  
   2 C       4.1641866    4.5018976    4.2967165  
   3 C       3.3593081    4.3880422    4.5578124  
   4 C       3.9524270    3.7421194    3.1334088  
   5 C       2.8140894 *  3.2594699    3.1658573  
   6 C       2.4218990 *  3.6838813    3.9842306  
   7 C       3.4449496    2.2298896 *  1.3843846 *
   8 C       4.2908136    3.2965688    2.2645124 *
   9 C       3.2528431    4.4519942    4.9061989  
  10 C       2.2716234 *  3.9395313    4.7396112  
  11 C       1.3989304 *  3.3466337    4.1162813  
  12 C       3.7527773    4.2692610    4.5668491  
  13 C       4.3449753    4.3844572    4.2543122  
  14 C       4.5648998    3.8838877    3.4158739  
  15 C       3.0939487    3.3965419    3.9811533  
  16 C       3.0800163    2.3868202 *  2.8003755 *
  17 C       3.9217033    2.7546250 *  2.4118200 *
  18 C       2.2390432 *  3.3556241    4.3109827  
  19 C       4.7589535    3.4468876    2.3046031 *
  20 C       4.9168323    4.1093101    3.2803319  
  21 C       4.1081660    2.4096074 *  1.4022007 *
  22 C       2.1944079 *  1.3853640 *  2.4300546 *
  23 C       1.3833085 *  2.2911423 *  3.4899577  
  24 C       2.4095592 *  2.2278524 *  2.2240114 *
  25 C       1.3726371 *  1.4073623 *  2.2541767 *
  26 C       0.0000000    2.2838519 *  3.3560970  
  27 C       2.2838519 *  0.0000000    1.3738112 *
  28 C       3.3560970    1.3738112 *  0.0000000  

  * ... LESS THAN  3.000


 TOTAL NUMBER OF BASIS SET SHELLS             =   28
 NUMBER OF CARTESIAN GAUSSIAN BASIS FUNCTIONS =  112
 NUMBER OF ELECTRONS                          =  112
 CHARGE OF MOLECULE                           =    0
 SPIN MULTIPLICITY                            =    1
 NUMBER OF OCCUPIED ORBITALS (ALPHA)          =   56
 NUMBER OF OCCUPIED ORBITALS (BETA )          =   56
 TOTAL NUMBER OF ATOMS                        =   28
 THE NUCLEAR REPULSION ENERGY IS     2553.7464967444

 THE PARAMETERS USED IN THIS CALCULATION ARE DESCRIBED IN:

  C: (PM3): J. J. P. STEWART, J. COMP. CHEM. 10, 209 (1989).                    

 THERE ARE   28 HEAVY AND    0 LIGHT ATOMS,
 YIELDING A TOTAL OF     37800 MOPAC 2E- INTEGRALS.

     $CONTRL OPTIONS
     ---------------
 SCFTYP=RHF          RUNTYP=OPTIMIZE     EXETYP=RUN     
 MPLEVL=       0     CITYP =NONE         CCTYP =NONE         VBTYP =NONE    
 DFTTYP=NONE         TDDFT =NONE    
 MULT  =       1     ICHARG=       0     NZVAR =       0     COORD =UNIQUE  
 PP    =NONE         RELWFN=NONE         LOCAL =NONE         NUMGRD=       F
 ISPHER=      -1     NOSYM =       0     MAXIT =     200     UNITS =ANGS    
 PLTORB=       F     MOLPLT=       F     AIMPAC=       F     FRIEND=        
 NPRINT=       7     IREST =       0     GEOM  =INPUT   
 NORMF =       0     NORMP =       0     ITOL  =      20     ICUT  =       9
 INTTYP=BEST         GRDTYP=BEST         QMTTOL= 1.0E-06

     $SYSTEM OPTIONS
     ---------------
  REPLICATED MEMORY=    10000000 WORDS (ON EVERY NODE).
 DISTRIBUTED MEMDDI=           0 MILLION WORDS IN AGGREGATE,
 MEMDDI DISTRIBUTED OVER   2 PROCESSORS IS           0 WORDS/PROCESSOR.
 TOTAL MEMORY REQUESTED ON EACH PROCESSOR=    10000000 WORDS.
 TIMLIM=      525600.00 MINUTES, OR     365.0 DAYS.
 PARALL= T  BALTYP=  DLB     KDIAG=    0  COREFL= F
 MXSEQ2=     300 MXSEQ3=     150  mem10=         0  mem22=         0

          ----------------
          PROPERTIES INPUT
          ----------------

     MOMENTS            FIELD           POTENTIAL          DENSITY
 IEMOM =       1   IEFLD =       0   IEPOT =       0   IEDEN =       0
 WHERE =COMASS     WHERE =NUCLEI     WHERE =NUCLEI     WHERE =NUCLEI  
 OUTPUT=BOTH       OUTPUT=BOTH       OUTPUT=BOTH       OUTPUT=BOTH    
 IEMINT=       0   IEFINT=       0                     IEDINT=       0
                                                       MORB  =       0
          EXTRAPOLATION IN EFFECT
          SOSCF IN EFFECT
 ORBITAL PRINTING OPTION: NPREO=     1   112     2     1

     -------------------------------
     INTEGRAL TRANSFORMATION OPTIONS
     -------------------------------
     NWORD  =            0
     CUTTRF = 1.0E-09     MPTRAN =       0
     DIRTRF =       T     AOINTS =DUP     

          ----------------------
          INTEGRAL INPUT OPTIONS
          ----------------------
 NOPK  =       1 NORDER=       0 SCHWRZ=       T

     ------------------------------------------
     THE POINT GROUP IS C1 , NAXIS= 0, ORDER= 1
     ------------------------------------------

     DIMENSIONS OF THE SYMMETRY SUBSPACES ARE
 A   =  112

 ..... DONE SETTING UP THE RUN .....
 CPU     0: STEP CPU TIME=     0.06 TOTAL CPU TIME=          0.1 (      0.0 MIN)
 TOTAL WALL CLOCK TIME=          0.1 SECONDS, CPU UTILIZATION IS   105.93%


          -----------------------------
          STATIONARY POINT LOCATION RUN
          -----------------------------

 OBTAINING INITIAL HESSIAN, HESS=GUESS   
 CARTESIAN COORDINATE OPTIMIZATION USING BADGER'S RULE FORCE CONSTANT GUESS

          PARAMETERS CONTROLLING GEOMETRY SEARCH ARE
          METHOD =QA                  UPHESS =BFGS    
          NNEG   =         0          NFRZ   =         0
          NSTEP  =       100          IFOLOW =         1
          HESS   =GUESS               RESTAR =         F
          IHREP  =         0          HSSEND =         F
          NPRT   =         0          NPUN   =         0
          OPTTOL = 1.000E-03          RMIN   = 1.500E-03
          RMAX   = 1.000E-01          RLIM   = 7.000E-02
          DXMAX  = 3.000E-01          PURIFY =         F
          MOVIE  =         F          TRUPD  =         T
          TRMAX  = 5.000E-01          TRMIN  = 5.000E-02
          ITBMAT =         5          STPT   =         F
          STSTEP = 1.000E-02          PROJCT=          T

 BEGINNING GEOMETRY SEARCH POINT NSERCH=   0 ...

 COORDINATES OF ALL ATOMS ARE (ANGS)
   ATOM   CHARGE       X              Y              Z
 ------------------------------------------------------------
 C           6.0  -1.4704000000   1.6680000000  -0.7232000000
 C           6.0  -0.1781000000   2.1139000000  -0.6491000000
 C           6.0   0.8621000000   1.5444000000  -1.3604000000
 C           6.0  -1.7266000000   0.4962000000  -1.4317000000
 C           6.0  -0.6448000000  -0.2764000000  -1.9138000000
 C           6.0   0.6735000000   0.2640000000  -1.9158000000
 C           6.0  -1.9396000000  -1.4725000000  -0.5173000000
 C           6.0  -2.5511000000  -0.2641000000  -0.6067000000
 C           6.0   1.9580000000   1.5104000000  -0.5278000000
 C           6.0   2.5612000000   0.2973000000  -0.6123000000
 C           6.0   1.7597000000  -0.5045000000  -1.4314000000
 C           6.0   1.4880000000   1.7348000000   0.7535000000
 C           6.0   0.1916000000   2.1832000000   0.6960000000
 C           6.0  -0.8702000000   1.5857000000   1.3573000000
 C           6.0   1.7399000000   0.5110000000   1.3918000000
 C           6.0   0.6473000000  -0.2703000000   1.8371000000
 C           6.0  -0.6740000000   0.2720000000   1.8519000000
 C           6.0   2.5688000000  -0.2992000000   0.6154000000
 C           6.0  -2.5942000000   0.3028000000   0.6422000000
 C           6.0  -1.9936000000   1.5147000000   0.5492000000
 C           6.0  -1.7822000000  -0.5129000000   1.4250000000
 C           6.0   0.8600000000  -1.5824000000   1.3413000000
 C           6.0   1.9766000000  -1.5106000000   0.5231000000
 C           6.0  -0.8423000000  -1.5544000000  -1.3474000000
 C           6.0   0.1950000000  -2.1454000000  -0.6549000000
 C           6.0   1.4894000000  -1.7003000000  -0.7576000000
 C           6.0  -0.2070000000  -2.1831000000   0.6933000000
 C           6.0  -1.4982000000  -1.7204000000   0.7712000000

          ********************
          1 ELECTRON INTEGRALS
          ********************

          **************************
          1 AND 2 ELECTRON INTEGRALS
          **************************

 MOPAC ONE- AND TWO-ELECTRON INTEGRALS REQUIRE     50456 WORDS.
 ...... END OF ONE- AND TWO-ELECTRON INTEGRALS......
 CPU     0: STEP CPU TIME=     0.00 TOTAL CPU TIME=          0.1 (      0.0 MIN)
 TOTAL WALL CLOCK TIME=          0.1 SECONDS, CPU UTILIZATION IS    96.15%
 ...... END OF ONE-ELECTRON INTEGRALS ......
 CPU     0: STEP CPU TIME=     0.00 TOTAL CPU TIME=          0.1 (      0.0 MIN)
 TOTAL WALL CLOCK TIME=          0.1 SECONDS, CPU UTILIZATION IS    96.15%

          -------------
          GUESS OPTIONS
          -------------
          GUESS =HUCKEL            NORB  =       0          NORDER=       0
          MIX   =       F          PRTMO =       F          PUNMO =       F
          TOLZ  = 1.0E-08          TOLE  = 1.0E-05
          SYMDEN=       F          PURIFY=       F

 INITIAL GUESS ORBITALS GENERATED BY HUCKEL   ROUTINE.

 SYMMETRIES FOR INITIAL GUESS ORBITALS FOLLOW.   BOTH SET(S).
    56 ORBITALS ARE OCCUPIED (    0 CORE ORBITALS).
     1=A        2=A        3=A        4=A        5=A        6=A        7=A   
     8=A        9=A       10=A       11=A       12=A       13=A       14=A   
    15=A       16=A       17=A       18=A       19=A       20=A       21=A   
    22=A       23=A       24=A       25=A       26=A       27=A       28=A   
    29=A       30=A       31=A       32=A       33=A       34=A       35=A   
    36=A       37=A       38=A       39=A       40=A       41=A       42=A   
    43=A       44=A       45=A       46=A       47=A       48=A       49=A   
    50=A       51=A       52=A       53=A       54=A       55=A       56=A   
    57=A       58=A       59=A       60=A       61=A       62=A       63=A   
    64=A       65=A       66=A   
 ...... END OF INITIAL ORBITAL SELECTION ......
 CPU     0: STEP CPU TIME=     0.02 TOTAL CPU TIME=          0.1 (      0.0 MIN)
 TOTAL WALL CLOCK TIME=          0.1 SECONDS, CPU UTILIZATION IS   105.57%

          --------------------------
               R-PM3 SCF CALCULATION
          --------------------------

     NUCLEAR ENERGY =      1006.2731108492
     MAXIT =  200     NPUNCH=    2
     EXTRAP=T  DAMP=F  SHIFT=F  RSTRCT=F  DIIS=F  DEM=F  SOSCF=T
     DENSITY MATRIX CONV=  2.00E-05
     SOSCF WILL OPTIMIZE    3136 ORBITAL ROTATIONS, SOGTOL=   0.250
     MEMORY REQUIRED FOR RHF ITERS=    140168 WORDS.

                                                                                   NONZERO     BLOCKS
 ITER EX DEM     TOTAL ENERGY        E CHANGE  DENSITY CHANGE     ORB. GRAD      INTEGRALS    SKIPPED
   1  0  0     -119.4884148149  -119.4884148149   0.173851926   0.000000000              0          0
          ---------------START SECOND ORDER SCF---------------
   2  1  0     -120.3744344368    -0.8860196220   0.066393441   0.016348309              0          0
   3  2  0     -120.4417684644    -0.0673340276   0.048879934   0.023245014              0          0
   4  3  0     -120.4627199015    -0.0209514371   0.016366184   0.007481534              0          0
   5  4  0     -120.4671340475    -0.0044141460   0.023404211   0.005293976              0          0
   6  5  0     -120.4703033314    -0.0031692839   0.041288919   0.003234777              0          0
   7  6  0     -120.4734787818    -0.0031754503   0.019333792   0.003152745              0          0
   8  7  0     -120.4748065808    -0.0013277990   0.029204254   0.002791239              0          0
   9  8  0     -120.4762114287    -0.0014048479   0.010825812   0.001545538              0          0
  10  9  0     -120.4765979129    -0.0003864842   0.018530351   0.001491527              0          0
  11 10  0     -120.4770076480    -0.0004097351   0.008584642   0.000945869              0          0
  12 11  0     -120.4771534707    -0.0001458226   0.008294561   0.000661019              0          0
  13 12  0     -120.4772528349    -0.0000993642   0.005155843   0.000380051              0          0
  14 13  0     -120.4772958681    -0.0000430332   0.002806730   0.000308040              0          0
  15 14  0     -120.4773117070    -0.0000158389   0.001844273   0.000208668              0          0
  16 15  0     -120.4773199214    -0.0000082144   0.001388069   0.000133620              0          0
  17 16  0     -120.4773242088    -0.0000042874   0.001112297   0.000082792              0          0
  18 17  0     -120.4773261133    -0.0000019045   0.000648138   0.000054213              0          0
  19 18  0     -120.4773268734    -0.0000007600   0.000374077   0.000034916              0          0
  20 19  0     -120.4773271880    -0.0000003146   0.000222816   0.000024066              0          0
  21 20  0     -120.4773273247    -0.0000001367   0.000149039   0.000012713              0          0
  22 21  0     -120.4773273799    -0.0000000553   0.000078461   0.000009202              0          0
  23 22  0     -120.4773273975    -0.0000000175   0.000033711   0.000004416              0          0
  24 23  0     -120.4773274017    -0.0000000043   0.000014171   0.000002646              0          0
  25 24  0     -120.4773274028    -0.0000000011   0.000010956   0.000001296              0          0

          -----------------
          DENSITY CONVERGED
          -----------------
     TIME TO FORM FOCK OPERATORS=       0.0 SECONDS (       0.0 SEC/ITER)
     FOCK TIME ON FIRST ITERATION=       0.0, LAST ITERATION=       0.0
     TIME TO SOLVE SCF EQUATIONS=       0.1 SECONDS (       0.0 SEC/ITER)

 FINAL R-PM3 ENERGY IS     -120.4773274028 AFTER  25 ITERATIONS

 HEAT OF FORMATION IS      1004.08178 KCAL/MOL
 

          ------------
          EIGENVECTORS
          ------------

                      1          2          3          4          5
                   -1.9737    -1.7471    -1.6574    -1.5207    -1.3540
                     A          A          A          A          A   
    1  C  1  S    0.185294   0.173357  -0.210095   0.062226  -0.042555
    2  C  1  X    0.022721  -0.020853  -0.051651   0.023516   0.101189
    3  C  1  Y   -0.040959  -0.055906   0.003760  -0.035344   0.075392
    4  C  1  Z    0.031218   0.036478  -0.050090  -0.061473  -0.005350
    5  C  2  S    0.184867   0.015629  -0.289013   0.084851   0.238612
    6  C  2  X    0.005322  -0.063543  -0.013949   0.025302   0.061971
    7  C  2  Y   -0.045321  -0.006088   0.047780  -0.038581  -0.018965
    8  C  2  Z    0.025933   0.008133  -0.054188  -0.059497   0.051086
    9  C  3  S    0.180660  -0.117130  -0.211409   0.227092   0.147128
   10  C  3  X   -0.004787  -0.046608   0.016358  -0.008061  -0.046567
   11  C  3  Y   -0.031855   0.030065  -0.004817  -0.066556   0.041530
   12  C  3  Z    0.044444  -0.032900  -0.071783   0.003252   0.063944
   13  C  4  S    0.182185   0.204839  -0.044148   0.207293  -0.146290
   14  C  4  X    0.022333  -0.008129  -0.012601   0.056433   0.053741
   15  C  4  Y   -0.015590  -0.023816  -0.059884  -0.044930   0.007298
   16  C  4  Z    0.048384   0.069168  -0.023226  -0.002322  -0.069243
   17  C  5  S    0.169635   0.085038   0.049905   0.311171   0.027559
   18  C  5  X    0.000348  -0.056217  -0.005952   0.014939   0.034715
   19  C  5  Y    0.001453  -0.003038  -0.060564   0.005440  -0.024110
   20  C  5  Z    0.047405   0.033259   0.019505   0.056344   0.004076
   21  C  6  S    0.169883  -0.089760  -0.045001   0.307431   0.016910
   22  C  6  X   -0.000440  -0.055784  -0.006027  -0.017995  -0.041347
   23  C  6  Y   -0.000592  -0.003430  -0.060926  -0.003698   0.023444
   24  C  6  Z    0.047523  -0.034306  -0.018269   0.055020   0.000728
   25  C  7  S    0.188790   0.221976   0.192731   0.118043   0.023811
   26  C  7  X    0.039109   0.016872   0.065782   0.034793   0.091830
   27  C  7  Y    0.041869   0.066976  -0.002767   0.029620  -0.090350
   28  C  7  Z    0.017446   0.024643   0.020011  -0.060309   0.002561
   29  C  8  S    0.186299   0.270520   0.040219   0.093767  -0.243814
   30  C  8  X    0.058691   0.072283   0.019517   0.047910  -0.031885
   31  C  8  Y    0.006269   0.012277  -0.056168  -0.013783  -0.061126
   32  C  8  Z    0.024181   0.042389   0.000077  -0.056885  -0.049626
   33  C  9  S    0.188012  -0.221165  -0.192688   0.114387   0.020524
   34  C  9  X   -0.040309   0.019084   0.066271  -0.034247  -0.089738
   35  C  9  Y   -0.042896   0.067704   0.000347  -0.028845   0.088930
   36  C  9  Z    0.017524  -0.023829  -0.020378  -0.057617   0.006662
   37  C 10  S    0.186260  -0.270098  -0.041883   0.089390  -0.248744
   38  C 10  X   -0.058946   0.072821   0.020372  -0.045282   0.034431
   39  C 10  Y   -0.006622   0.013246  -0.056863   0.013956   0.064834
   40  C 10  Z    0.023971  -0.041324  -0.000683  -0.055608  -0.045219
   41  C 11  S    0.180834  -0.206461   0.048819   0.196894  -0.162461
   42  C 11  X   -0.022863  -0.005760  -0.013438  -0.056230  -0.050601
   43  C 11  Y    0.016056  -0.024639  -0.059885   0.044155  -0.010861
   44  C 11  Z    0.047573  -0.068344   0.023935  -0.005354  -0.071023
   45  C 12  S    0.179599  -0.166164  -0.214376  -0.064920   0.142543
   46  C 12  X   -0.023895  -0.017643   0.053254   0.022433  -0.099597
   47  C 12  Y   -0.041949   0.056067   0.009913   0.032947   0.045781
   48  C 12  Z   -0.032122   0.036527   0.050548  -0.052450  -0.027632
   49  C 13  S    0.178064  -0.015966  -0.284952  -0.090099   0.277670
   50  C 13  X   -0.004853  -0.059933   0.011865   0.024534   0.017541
   51  C 13  Y   -0.047445   0.005919   0.055405   0.037944  -0.040613
   52  C 13  Z   -0.026767   0.007961   0.054013  -0.049750  -0.050672
   53  C 14  S    0.177617   0.117120  -0.214008  -0.220660   0.087227
   54  C 14  X    0.005329  -0.046034  -0.019037  -0.006326   0.090242
   55  C 14  Y   -0.031812  -0.031313  -0.002371   0.063103   0.033439
   56  C 14  Z   -0.044200  -0.032566   0.070669   0.006569  -0.024974
   57  C 15  S    0.183593  -0.208549  -0.050880  -0.198708  -0.062795
   58  C 15  X   -0.021726  -0.008377   0.014069   0.051933  -0.066120
   59  C 15  Y   -0.015369   0.024888  -0.062951   0.043853   0.062252
   60  C 15  Z   -0.047973   0.068397   0.024322  -0.002947   0.041990
   61  C 16  S    0.172823  -0.088658   0.050231  -0.299965   0.058696
   62  C 16  X    0.000942  -0.059519   0.005975   0.012382  -0.053135
   63  C 16  Y    0.000853   0.003505  -0.065682  -0.003271   0.001276
   64  C 16  Z   -0.045625   0.032960  -0.018604   0.048561  -0.001494
   65  C 17  S    0.172137   0.094690  -0.048413  -0.297718   0.049972
   66  C 17  X   -0.000888  -0.058838   0.005318  -0.013577   0.058503
   67  C 17  Y   -0.000094   0.003513  -0.064864   0.002496  -0.001234
   68  C 17  Z   -0.045845  -0.033848   0.018075   0.048743   0.000152
   69  C 18  S    0.184730  -0.268721   0.043948  -0.100990  -0.274183
   70  C 18  X   -0.059090   0.073566  -0.020845   0.047773   0.044971
   71  C 18  Y    0.006989  -0.013182  -0.056322   0.012982   0.008029
   72  C 18  Z   -0.024636   0.042190  -0.001061  -0.050084   0.065115
   73  C 19  S    0.182240   0.267961  -0.041083  -0.099619  -0.276886
   74  C 19  X    0.059450   0.075490  -0.019881  -0.047010  -0.049419
   75  C 19  Y   -0.006325  -0.012289  -0.054103  -0.012068  -0.008073
   76  C 19  Z   -0.024028  -0.040907   0.000774  -0.049812   0.059985
   77  C 20  S    0.184237   0.221550  -0.185424  -0.121659  -0.146797
   78  C 20  X    0.040721   0.021365  -0.065889  -0.035102   0.058273
   79  C 20  Y   -0.043274  -0.069101   0.001551   0.029620   0.096312
   80  C 20  Z   -0.017468  -0.023720   0.018588  -0.052580   0.029445
   81  C 21  S    0.179499   0.209723   0.050310  -0.195147  -0.076644
   82  C 21  X    0.022388  -0.005160   0.014286  -0.051637   0.062388
   83  C 21  Y    0.016179   0.026115  -0.059555  -0.042650  -0.062736
   84  C 21  Z   -0.048002  -0.068928  -0.024032  -0.000946   0.043280
   85  C 22  S    0.176832  -0.113502   0.217757  -0.221514   0.093790
   86  C 22  X   -0.005516  -0.045880  -0.019212   0.006329  -0.088438
   87  C 22  Y    0.031698  -0.030457  -0.002537  -0.063474  -0.031871
   88  C 22  Z   -0.043590   0.032194  -0.071375   0.006449  -0.024692
   89  C 23  S    0.184726  -0.219920   0.191712  -0.122734  -0.143005
   90  C 23  X   -0.039873   0.019810  -0.066305   0.034738  -0.060429
   91  C 23  Y    0.042953  -0.068095   0.001212  -0.030319  -0.095171
   92  C 23  Z   -0.017548   0.024277  -0.019636  -0.053119   0.033256
   93  C 24  S    0.178985   0.112112   0.215364   0.227786   0.158872
   94  C 24  X    0.005252  -0.046409   0.018014   0.006547   0.043478
   95  C 24  Y    0.032114   0.030207  -0.003724   0.068113  -0.038382
   96  C 24  Z    0.043166   0.031376   0.071381   0.002064   0.064714
   97  C 25  S    0.179920  -0.018575   0.289523   0.081817   0.236103
   98  C 25  X   -0.004912  -0.061139  -0.013138  -0.026037  -0.065016
   99  C 25  Y    0.045747  -0.006656   0.051425   0.037643   0.021892
  100  C 25  Z    0.024776  -0.007549   0.052495  -0.057841   0.048774
  101  C 26  S    0.179878  -0.169445   0.212272   0.058669  -0.047217
  102  C 26  X   -0.022676  -0.018530  -0.051760  -0.023345  -0.098131
  103  C 26  Y    0.041244  -0.055777   0.007250   0.032908  -0.076592
  104  C 26  Z    0.031605  -0.036435   0.051277  -0.057705  -0.004631
  105  C 27  S    0.175267   0.017946   0.285335  -0.089263   0.276278
  106  C 27  X    0.005329  -0.058887   0.013844  -0.025309  -0.014056
  107  C 27  Y    0.046679   0.007003   0.055212  -0.037858   0.040011
  108  C 27  Z   -0.025836  -0.007193  -0.053369  -0.050034  -0.049832
  109  C 28  S    0.176995   0.166600   0.211461  -0.066298   0.134643
  110  C 28  X    0.023250  -0.017278   0.053000  -0.022008   0.098716
  111  C 28  Y    0.041597   0.056727   0.009122  -0.032898  -0.048810
  112  C 28  Z   -0.031426  -0.035382  -0.050272  -0.052375  -0.029816

                      6          7          8          9         10
                   -1.3468    -1.2730    -1.1949    -1.1722    -1.0594
                     A          A          A          A          A   
    1  C  1  S    0.283263   0.138546  -0.116757  -0.161478   0.226419
    2  C  1  X    0.032904   0.001752   0.008841  -0.031218   0.103900
    3  C  1  Y   -0.013986  -0.054768  -0.027860   0.039788   0.062604
    4  C  1  Z    0.054185  -0.047182  -0.075624   0.072455   0.040459
    5  C  2  S    0.142114   0.044240  -0.137590  -0.187700   0.124560
    6  C  2  X   -0.117022  -0.037968   0.003824  -0.030863  -0.184596
    7  C  2  Y   -0.026851  -0.007354  -0.025588   0.059111  -0.021611
    8  C  2  Z    0.019084   0.004852  -0.082207   0.112992   0.005006
    9  C  3  S   -0.064322  -0.140205   0.069094  -0.304764  -0.075436
   10  C  3  X   -0.084897  -0.066304  -0.024697   0.039727  -0.052141
   11  C  3  Y   -0.000978   0.066985  -0.106046   0.014388  -0.036418
   12  C  3  Z   -0.046514   0.008546  -0.085962  -0.022434  -0.066145
   13  C  4  S    0.095814   0.300228   0.088162  -0.106427  -0.028491
   14  C  4  X    0.035539   0.019634   0.090678  -0.008172   0.078614
   15  C  4  Y    0.083606  -0.050038  -0.051002  -0.091266   0.066687
   16  C  4  Z    0.022251   0.027008  -0.067775  -0.036078  -0.031482
   17  C  5  S    0.063010   0.172681   0.336757   0.103649  -0.003018
   18  C  5  X    0.036102  -0.119669   0.059542  -0.003707  -0.007701
   19  C  5  Y    0.034373   0.001816   0.033450  -0.137697   0.023322
   20  C  5  Z   -0.000116   0.047231   0.022555   0.026888   0.004731
   21  C  6  S    0.058835  -0.180420   0.343911  -0.085213  -0.003992
   22  C  6  X   -0.037727  -0.114810  -0.058803  -0.004226  -0.000702
   23  C  6  Y   -0.037181   0.000589  -0.024062  -0.137673   0.022937
   24  C  6  Z   -0.001169  -0.046950   0.024552  -0.024823  -0.003221
   25  C  7  S   -0.269806   0.095862  -0.116353   0.083838   0.110874
   26  C  7  X   -0.015370   0.012019  -0.006478   0.066524   0.107674
   27  C  7  Y   -0.035977   0.055441   0.017627  -0.015563  -0.106840
   28  C  7  Z   -0.062893  -0.104801  -0.062257  -0.090944   0.043694
   29  C  8  S   -0.127958   0.157743  -0.094681  -0.058216  -0.226213
   30  C  8  X   -0.027036   0.069933   0.008928   0.010889  -0.000795
   31  C  8  Y    0.101167   0.010168  -0.006285  -0.048731  -0.055800
   32  C  8  Z   -0.044669  -0.104048  -0.059448  -0.042001  -0.057018
   33  C  9  S   -0.272037  -0.091796  -0.114334  -0.082292  -0.110118
   34  C  9  X    0.017927   0.015841   0.006485   0.066500   0.108680
   35  C  9  Y    0.041077   0.048714  -0.017031  -0.015617  -0.104507
   36  C  9  Z   -0.057746   0.102991  -0.068134   0.088322  -0.043833
   37  C 10  S   -0.134885  -0.142557  -0.091325   0.056919   0.235039
   38  C 10  X    0.030747   0.064389  -0.010197   0.010687  -0.003596
   39  C 10  Y   -0.100591   0.010180   0.006081  -0.046222  -0.063235
   40  C 10  Z   -0.042489   0.105013  -0.062730   0.042202   0.053412
   41  C 11  S    0.093637  -0.292278   0.085450   0.108630   0.037261
   42  C 11  X   -0.035639   0.026118  -0.088077  -0.011681   0.082515
   43  C 11  Y   -0.086519  -0.046912   0.056491  -0.083274   0.072435
   44  C 11  Z    0.022010  -0.020705  -0.068718   0.030761   0.036512
   45  C 12  S   -0.249256   0.145872  -0.117231   0.145359  -0.259730
   46  C 12  X   -0.033737  -0.004099  -0.002632  -0.031097   0.068196
   47  C 12  Y    0.062205  -0.054446  -0.027536  -0.037785  -0.031656
   48  C 12  Z    0.049596   0.040192   0.075863   0.067347   0.046376
   49  C 13  S    0.031947   0.053801  -0.141392   0.180020  -0.065200
   50  C 13  X   -0.127674   0.037750  -0.004254  -0.032294  -0.193442
   51  C 13  Y    0.005872  -0.011661  -0.018062  -0.058152   0.018177
   52  C 13  Z   -0.012733  -0.000566   0.080566   0.103148  -0.006754
   53  C 14  S    0.152779  -0.120403   0.058997   0.303951   0.100727
   54  C 14  X   -0.037630   0.066308   0.021925   0.037212  -0.027422
   55  C 14  Y    0.020833   0.062414  -0.105644  -0.023749   0.046431
   56  C 14  Z   -0.075076  -0.007634   0.084334  -0.014581  -0.074094
   57  C 15  S   -0.168335   0.296609   0.098004   0.096953   0.005511
   58  C 15  X   -0.006255  -0.020477  -0.091380  -0.010310   0.077471
   59  C 15  Y   -0.065807  -0.045285  -0.058182   0.085298  -0.094164
   60  C 15  Z    0.060894  -0.022678   0.067489  -0.028365  -0.021994
   61  C 16  S   -0.026069   0.171717   0.357636  -0.092105  -0.007484
   62  C 16  X    0.006869   0.116858  -0.058373  -0.011477  -0.001557
   63  C 16  Y   -0.044129   0.007223   0.028832   0.138872  -0.018603
   64  C 16  Z   -0.003795  -0.041405  -0.019544   0.023973   0.006106
   65  C 17  S   -0.027695  -0.167540   0.352635   0.110026   0.001326
   66  C 17  X   -0.002986   0.114641   0.059800  -0.006696   0.002248
   67  C 17  Y    0.050048   0.005514  -0.033000   0.134468  -0.014970
   68  C 17  Z   -0.003463   0.039324  -0.019730  -0.023922  -0.006117
   69  C 18  S   -0.039026   0.159448  -0.085982   0.048626   0.254097
   70  C 18  X   -0.004440  -0.066638  -0.012485   0.013656  -0.009975
   71  C 18  Y   -0.118575   0.013724  -0.003502   0.046124   0.020379
   72  C 18  Z   -0.004494   0.095088   0.066971  -0.046866  -0.063031
   73  C 19  S   -0.045190  -0.150636  -0.084842  -0.049618  -0.258141
   74  C 19  X    0.002103  -0.064073   0.010683   0.012801  -0.014983
   75  C 19  Y    0.117453   0.011992   0.000386   0.041736   0.018716
   76  C 19  Z   -0.005554  -0.095182   0.067490   0.049050   0.056011
   77  C 20  S    0.224911  -0.095296  -0.114110   0.077476   0.050304
   78  C 20  X    0.072416  -0.013553  -0.006992   0.064046   0.127643
   79  C 20  Y    0.019581   0.047931  -0.014432   0.014433   0.122981
   80  C 20  Z   -0.046176  -0.093123   0.069464   0.090859  -0.028359
   81  C 21  S   -0.179043  -0.287075   0.102640  -0.085649  -0.019551
   82  C 21  X    0.002269  -0.023035   0.090294  -0.007284   0.077040
   83  C 21  Y    0.065052  -0.043198   0.051094   0.083033  -0.096156
   84  C 21  Z    0.063386   0.023139   0.063660   0.030563   0.022208
   85  C 22  S    0.144628   0.115598   0.068035  -0.307772  -0.092820
   86  C 22  X    0.041578   0.067599  -0.023926   0.036132  -0.033056
   87  C 22  Y   -0.019882   0.067621   0.107034  -0.017778   0.042676
   88  C 22  Z   -0.073004   0.011230   0.084310   0.020500   0.070148
   89  C 23  S    0.227954   0.091398  -0.113068  -0.087687  -0.054124
   90  C 23  X   -0.068728  -0.009569   0.005530   0.066338   0.124474
   91  C 23  Y   -0.018799   0.053633   0.016842   0.015417   0.122608
   92  C 23  Z   -0.047500   0.095970   0.072158  -0.089201   0.028349
   93  C 24  S   -0.055870   0.127788   0.048874   0.310932   0.068546
   94  C 24  X    0.084212  -0.071069   0.020902   0.038029  -0.060304
   95  C 24  Y    0.000774   0.070506   0.103402   0.020859  -0.033156
   96  C 24  Z   -0.045798  -0.011699  -0.086740   0.016936   0.067135
   97  C 25  S    0.142883  -0.063220  -0.150894   0.174701  -0.132588
   98  C 25  X    0.113718  -0.036346  -0.003550  -0.034653  -0.180914
   99  C 25  Y    0.028469  -0.009102   0.018704   0.059939  -0.023563
  100  C 25  Z    0.015063  -0.005566  -0.074498  -0.116351   0.002245
  101  C 26  S    0.281665  -0.146136  -0.124563   0.149032  -0.229170
  102  C 26  X   -0.032733   0.007589  -0.003818  -0.030891   0.105006
  103  C 26  Y    0.017951  -0.050333   0.026195   0.040795   0.060381
  104  C 26  Z    0.055486   0.040821  -0.074222  -0.072048  -0.040848
  105  C 27  S    0.017633  -0.066901  -0.132698  -0.188288   0.080642
  106  C 27  X    0.127343   0.034986   0.002571  -0.037654  -0.189744
  107  C 27  Y   -0.010257  -0.011491   0.021155  -0.057739   0.022277
  108  C 27  Z   -0.013808   0.004107   0.084016  -0.099560   0.008682
  109  C 28  S   -0.260044  -0.149052  -0.102759  -0.144568   0.259940
  110  C 28  X    0.030140  -0.006828   0.004567  -0.032383   0.073010
  111  C 28  Y   -0.063944  -0.050445   0.029958  -0.033032  -0.035794
  112  C 28  Z    0.047692  -0.038299   0.079239  -0.062808  -0.048611

                     11         12         13         14         15
                   -1.0561    -0.9838    -0.9717    -0.9651    -0.9188
                     A          A          A          A          A   
    1  C  1  S    0.137621   0.027857   0.219302  -0.048706  -0.145668
    2  C  1  X   -0.124676  -0.070488   0.016061   0.055731  -0.031365
    3  C  1  Y   -0.081907  -0.052347  -0.066004  -0.040592   0.011503
    4  C  1  Z    0.032566  -0.003171  -0.102527  -0.109692   0.061199
    5  C  2  S   -0.222612  -0.126784   0.033103   0.041567  -0.202291
    6  C  2  X   -0.065360  -0.034040  -0.099735   0.053617  -0.038922
    7  C  2  Y   -0.001504   0.033251  -0.023583  -0.013711   0.039987
    8  C  2  Z   -0.054709   0.080868  -0.027571  -0.046888   0.126213
    9  C  3  S   -0.054577  -0.113225  -0.207061  -0.008500  -0.180107
   10  C  3  X    0.098083   0.131633  -0.114932  -0.029723   0.028300
   11  C  3  Y   -0.054601  -0.022910   0.019973   0.103618  -0.119353
   12  C  3  Z   -0.029727   0.002220  -0.031164   0.072737  -0.094893
   13  C  4  S    0.090369   0.207826   0.161794   0.212203   0.004498
   14  C  4  X   -0.019975  -0.102291   0.048341   0.104975   0.066943
   15  C  4  Y    0.086550  -0.060716   0.150248  -0.071073  -0.091778
   16  C  4  Z    0.049149   0.066571   0.027304  -0.081047  -0.072493
   17  C  5  S   -0.000594  -0.144637   0.033307   0.209659   0.264980
   18  C  5  X    0.013141  -0.150698   0.063465  -0.159185   0.071592
   19  C  5  Y   -0.003041   0.005342   0.106345   0.029940   0.073408
   20  C  5  Z    0.003772   0.014294  -0.018806   0.037851  -0.019031
   21  C  6  S   -0.000880  -0.131562   0.016784  -0.228910   0.252735
   22  C  6  X    0.016199   0.159091  -0.073619  -0.145569  -0.078378
   23  C  6  Y    0.003998  -0.006506  -0.103305   0.040805  -0.076471
   24  C  6  Z   -0.003065   0.016357  -0.021209  -0.034601  -0.020308
   25  C  7  S   -0.213497   0.078879  -0.180011  -0.125551  -0.059640
   26  C  7  X    0.079660  -0.043165  -0.038487   0.023792  -0.066457
   27  C  7  Y   -0.090996   0.079597  -0.027581   0.024115   0.040325
   28  C  7  Z   -0.053604  -0.070012   0.145228  -0.098285   0.064840
   29  C  8  S   -0.112968   0.216493  -0.057583  -0.118551  -0.006578
   30  C  8  X   -0.024059   0.071401  -0.027021   0.050403  -0.003079
   31  C  8  Y    0.172665   0.007334   0.091352  -0.001153  -0.032801
   32  C  8  Z   -0.036104  -0.131458   0.036937  -0.133321   0.018531
   33  C  9  S    0.220635   0.078156  -0.154660   0.146133  -0.053796
   34  C  9  X    0.077192   0.038172   0.047449   0.016383   0.067765
   35  C  9  Y   -0.095835  -0.072278   0.023223   0.018989  -0.034944
   36  C  9  Z    0.043657  -0.071198   0.155884   0.080097   0.075258
   37  C 10  S    0.123756   0.203754  -0.038312   0.122902  -0.002639
   38  C 10  X   -0.027261  -0.066147   0.031143   0.044547   0.003271
   39  C 10  Y    0.174539  -0.008805  -0.077739   0.008757   0.030827
   40  C 10  Z    0.034693  -0.134002   0.055414   0.125213   0.022112
   41  C 11  S   -0.100706   0.216308   0.135762  -0.220603   0.000854
   42  C 11  X   -0.015926   0.089973  -0.040054   0.112504  -0.063527
   43  C 11  Y    0.094811   0.059337  -0.145748  -0.060810   0.083845
   44  C 11  Z   -0.050789   0.058898   0.028090   0.084474  -0.066138
   45  C 12  S    0.073542  -0.018139   0.221570   0.028385   0.143981
   46  C 12  X    0.144540  -0.066406  -0.003723   0.056949  -0.027362
   47  C 12  Y   -0.101767   0.041855  -0.068418   0.041522  -0.002468
   48  C 12  Z   -0.018666   0.011608   0.084329  -0.118246   0.050360
   49  C 13  S   -0.248062   0.122542   0.024461  -0.054280   0.210719
   50  C 13  X    0.016907  -0.031179   0.098768   0.043448  -0.038527
   51  C 13  Y    0.012583  -0.036475  -0.018894   0.015574  -0.030492
   52  C 13  Z    0.055495   0.078255   0.020890  -0.043129   0.107198
   53  C 14  S   -0.029481   0.103614  -0.202817   0.028470   0.176972
   54  C 14  X   -0.113944   0.133876   0.096159  -0.044174   0.022921
   55  C 14  Y   -0.046930   0.018593   0.017016  -0.105947   0.120140
   56  C 14  Z    0.011291   0.007244   0.028190   0.066558  -0.083359
   57  C 15  S    0.109422  -0.192594   0.154002  -0.227825  -0.012564
   58  C 15  X    0.037200  -0.099890  -0.028019   0.109905   0.073834
   59  C 15  Y    0.069617   0.071097   0.149375   0.064214   0.086182
   60  C 15  Z   -0.055963   0.054689  -0.035060  -0.081860  -0.063792
   61  C 16  S    0.005741   0.139701  -0.003155  -0.215185  -0.255602
   62  C 16  X   -0.012109  -0.157540  -0.063125  -0.158281   0.071443
   63  C 16  Y   -0.004662   0.002338   0.101119  -0.041360  -0.085639
   64  C 16  Z   -0.003813   0.017060   0.018024   0.032092  -0.016936
   65  C 17  S   -0.000770   0.139195   0.017028   0.232552  -0.249399
   66  C 17  X   -0.013065   0.159422   0.046282  -0.155639  -0.080641
   67  C 17  Y    0.003909   0.001974  -0.107185  -0.033159   0.075406
   68  C 17  Z    0.002729   0.014455   0.014507  -0.029396  -0.015600
   69  C 18  S   -0.062779  -0.215890  -0.032011   0.109392   0.014478
   70  C 18  X    0.022838   0.067847   0.028746   0.049148   0.002488
   71  C 18  Y    0.182887  -0.004314   0.089906  -0.005327   0.029014
   72  C 18  Z    0.023106  -0.125816  -0.044927  -0.131330   0.014136
   73  C 19  S    0.062971  -0.209672  -0.040126  -0.111563   0.019241
   74  C 19  X    0.023782  -0.065300  -0.021478   0.048079  -0.000104
   75  C 19  Y    0.185935   0.003608  -0.075320   0.000465  -0.025765
   76  C 19  Z   -0.021381  -0.126506  -0.032095   0.138350   0.018497
   77  C 20  S    0.250749  -0.095424  -0.155660  -0.120132   0.064159
   78  C 20  X   -0.039770   0.034071  -0.042994   0.020483   0.056631
   79  C 20  Y   -0.067333   0.070014   0.015692  -0.019877   0.035239
   80  C 20  Z   -0.049466  -0.074791  -0.132642   0.100108   0.069237
   81  C 21  S   -0.123045  -0.196168   0.165735   0.212561  -0.001532
   82  C 21  X    0.032875   0.093638   0.043675   0.109891  -0.068169
   83  C 21  Y    0.079139  -0.067709  -0.134777   0.078176  -0.076916
   84  C 21  Z    0.060768   0.053162  -0.023880   0.086369  -0.057958
   85  C 22  S    0.047929   0.102043  -0.200488  -0.009021   0.189722
   86  C 22  X   -0.109089  -0.133064  -0.107306  -0.033291  -0.029293
   87  C 22  Y   -0.045470  -0.023749  -0.030961  -0.101007  -0.122951
   88  C 22  Z   -0.012844   0.005086   0.022689  -0.064589  -0.084429
   89  C 23  S   -0.240711  -0.091368  -0.157146   0.133379   0.062698
   90  C 23  X   -0.046392  -0.036072   0.040973   0.016218  -0.060548
   91  C 23  Y   -0.066756  -0.076107  -0.024523  -0.022407  -0.038554
   92  C 23  Z    0.057859  -0.079238  -0.141506  -0.087455   0.070206
   93  C 24  S    0.070007  -0.124447  -0.198538   0.026659  -0.176394
   94  C 24  X    0.092276  -0.126809   0.117414  -0.041761  -0.030221
   95  C 24  Y   -0.055544   0.022914  -0.020783   0.101772   0.126900
   96  C 24  Z    0.032240   0.002774  -0.032997  -0.066169  -0.099190
   97  C 25  S    0.220383  -0.119000   0.044093  -0.038522  -0.205449
   98  C 25  X   -0.072394   0.044141   0.096091   0.050006   0.044711
   99  C 25  Y    0.000838  -0.033315   0.019249  -0.014508  -0.039342
  100  C 25  Z    0.053002   0.081201  -0.022911   0.045780   0.125468
  101  C 26  S   -0.147857   0.041727   0.213625   0.037448  -0.142727
  102  C 26  X   -0.120705   0.065724  -0.017160   0.052423   0.032318
  103  C 26  Y   -0.086803   0.049252   0.056222  -0.044953  -0.009563
  104  C 26  Z   -0.029272  -0.001067  -0.086267   0.116736   0.056451
  105  C 27  S    0.243678   0.120379   0.046375   0.040473   0.211111
  106  C 27  X    0.029396   0.038038  -0.092824   0.056490   0.049475
  107  C 27  Y    0.010719   0.035769   0.019668   0.011602   0.034357
  108  C 27  Z   -0.053946   0.076687   0.023955   0.040679   0.115195
  109  C 28  S   -0.095122  -0.024977   0.214952  -0.053879   0.132005
  110  C 28  X    0.141000   0.064752   0.017360   0.050655   0.029584
  111  C 28  Y   -0.105911  -0.040746   0.061723   0.036708   0.003202
  112  C 28  Z    0.014532   0.009778   0.094049   0.111186   0.055255

                     16         17         18         19         20
                   -0.8724    -0.8580    -0.8076    -0.7853    -0.7675
                     A          A          A          A          A   
    1  C  1  S   -0.035953  -0.105019  -0.156581   0.078014  -0.144035
    2  C  1  X    0.014277  -0.178690   0.083714  -0.114636  -0.124997
    3  C  1  Y   -0.084921  -0.129786   0.027332  -0.121708  -0.005940
    4  C  1  Z   -0.139344  -0.028139  -0.063729  -0.059368   0.130834
    5  C  2  S   -0.093542  -0.114588   0.177696  -0.186444  -0.057201
    6  C  2  X    0.013124   0.214926   0.067261  -0.031328   0.159706
    7  C  2  Y   -0.087678   0.014725   0.004635   0.033026   0.025626
    8  C  2  Z   -0.168197   0.001232   0.029338   0.119688   0.034796
    9  C  3  S    0.200992   0.057842  -0.000468  -0.054683   0.148197
   10  C  3  X   -0.074738   0.000901  -0.156814   0.207518   0.047347
   11  C  3  Y   -0.112850   0.040741   0.023060  -0.069895   0.045279
   12  C  3  Z   -0.110695   0.047001  -0.023298  -0.008941   0.057269
   13  C  4  S    0.123070   0.090886  -0.061869   0.159469   0.004587
   14  C  4  X    0.022166  -0.044714  -0.046821  -0.019085  -0.157379
   15  C  4  Y    0.055185   0.030494  -0.042044   0.127818  -0.126367
   16  C  4  Z    0.000683   0.035492   0.011678   0.055516   0.058982
   17  C  5  S   -0.119286   0.023483   0.025427   0.009329   0.000343
   18  C  5  X   -0.012571   0.007636   0.079274   0.020515   0.078215
   19  C  5  Y    0.215798   0.015021  -0.009420   0.000106  -0.018263
   20  C  5  Z   -0.021604   0.000841  -0.014795   0.003199  -0.021847
   21  C  6  S    0.122803   0.024106   0.024261  -0.007913   0.061821
   22  C  6  X   -0.019638  -0.010826  -0.080941   0.028231  -0.054160
   23  C  6  Y    0.215204  -0.010366   0.015604   0.002156  -0.022528
   24  C  6  Z    0.020147   0.001345  -0.013934  -0.004273  -0.007393
   25  C  7  S    0.107115  -0.101622  -0.168800  -0.173653  -0.055929
   26  C  7  X   -0.014352   0.147651  -0.075661   0.030514  -0.115335
   27  C  7  Y   -0.027937  -0.135371   0.073903  -0.053735   0.090672
   28  C  7  Z    0.073804  -0.018496  -0.033660   0.123827   0.047982
   29  C  8  S    0.061238  -0.084130   0.209800  -0.045202   0.207566
   30  C  8  X    0.012487  -0.012882  -0.066060  -0.018502   0.023854
   31  C  8  Y   -0.021519   0.204733   0.076155   0.154590   0.032713
   32  C  8  Z   -0.016351  -0.042623   0.132510   0.034066  -0.087961
   33  C  9  S   -0.105192  -0.109361  -0.189449   0.155314   0.090869
   34  C  9  X   -0.008122  -0.147628   0.078642   0.027881  -0.088077
   35  C  9  Y   -0.030689   0.137821  -0.073955  -0.052500   0.091987
   36  C  9  Z   -0.067977  -0.011698  -0.026689  -0.132633   0.004424
   37  C 10  S   -0.063918  -0.090713   0.227509   0.049043  -0.169833
   38  C 10  X    0.010434   0.014725   0.059700  -0.022178   0.063207
   39  C 10  Y   -0.013563  -0.210239  -0.101950   0.138951   0.045887
   40  C 10  Z    0.018651  -0.040364   0.121129  -0.052005   0.180574
   41  C 11  S   -0.131416   0.094671  -0.053733  -0.145630  -0.113290
   42  C 11  X    0.018983   0.046703   0.068384  -0.010066  -0.154286
   43  C 11  Y    0.055450  -0.033408   0.064396   0.134969  -0.161147
   44  C 11  Z   -0.000371   0.040689   0.023305  -0.052746  -0.049841
   45  C 12  S   -0.021583   0.113256  -0.165947  -0.078923  -0.143552
   46  C 12  X   -0.008562  -0.175634  -0.085144  -0.106353   0.111873
   47  C 12  Y   -0.085423   0.131099   0.039866   0.120134  -0.001117
   48  C 12  Z    0.140355  -0.018954   0.057209  -0.041327  -0.133416
   49  C 13  S   -0.082461   0.116753   0.179527   0.196669  -0.064221
   50  C 13  X   -0.014722   0.216298  -0.069762  -0.039346  -0.142487
   51  C 13  Y   -0.080398  -0.011037  -0.003644  -0.026909   0.022180
   52  C 13  Z    0.176993   0.006057  -0.030617   0.106985  -0.042806
   53  C 14  S    0.211522  -0.058547  -0.008399   0.054930   0.149388
   54  C 14  X    0.073708   0.003238   0.169958   0.205112  -0.054566
   55  C 14  Y   -0.112424  -0.044255   0.025114   0.072340   0.026882
   56  C 14  Z    0.109442   0.057608   0.028690  -0.001462  -0.045559
   57  C 15  S    0.130281  -0.092294  -0.063206  -0.147226   0.009187
   58  C 15  X   -0.021882  -0.047004   0.059543   0.001395   0.152415
   59  C 15  Y    0.060119  -0.025209  -0.059646  -0.126227  -0.130617
   60  C 15  Z    0.002870   0.039869  -0.019073   0.040901  -0.058962
   61  C 16  S   -0.129358  -0.021432   0.029518  -0.028283  -0.008153
   62  C 16  X    0.018633   0.003203  -0.087041   0.020358  -0.070331
   63  C 16  Y    0.220989  -0.007754  -0.012529  -0.006727  -0.008869
   64  C 16  Z    0.015794   0.006227   0.014851   0.004355   0.016979
   65  C 17  S    0.116702  -0.011558   0.032185   0.015925   0.062664
   66  C 17  X    0.015480  -0.009026   0.082956   0.007977   0.050921
   67  C 17  Y    0.223928   0.013711   0.011508  -0.008527  -0.006026
   68  C 17  Z   -0.016907   0.006070   0.014155  -0.004314   0.002758
   69  C 18  S    0.057238   0.094736   0.213926   0.059201   0.204156
   70  C 18  X   -0.009542  -0.007601   0.061522  -0.023507  -0.022269
   71  C 18  Y   -0.015299  -0.205624   0.100116  -0.137252   0.045669
   72  C 18  Z    0.016388  -0.045144  -0.130745   0.057453   0.081842
   73  C 19  S   -0.058669   0.095185   0.232168  -0.053375  -0.173323
   74  C 19  X   -0.008232   0.010384  -0.051710  -0.019893  -0.061084
   75  C 19  Y   -0.020620   0.211229  -0.100902  -0.125258   0.056721
   76  C 19  Z   -0.011250  -0.038453  -0.111548  -0.050879  -0.174014
   77  C 20  S   -0.105586   0.111774  -0.195863  -0.163828   0.095029
   78  C 20  X    0.011577  -0.151732  -0.094145   0.016175   0.082254
   79  C 20  Y   -0.026011  -0.137589  -0.077865   0.042708   0.085264
   80  C 20  Z    0.080761  -0.008651   0.021393  -0.125893  -0.007164
   81  C 21  S   -0.125587  -0.099709  -0.051137   0.155268  -0.117575
   82  C 21  X   -0.028453   0.046473  -0.076021   0.004943   0.153710
   83  C 21  Y    0.053638   0.039607   0.081671  -0.124840  -0.163078
   84  C 21  Z   -0.006703   0.047101  -0.020657  -0.037851   0.044053
   85  C 22  S   -0.200973  -0.059881   0.013147  -0.055166  -0.141398
   86  C 22  X    0.077645  -0.013715  -0.164508   0.203806  -0.088680
   87  C 22  Y   -0.118472   0.033853  -0.036093   0.068553   0.030784
   88  C 22  Z   -0.114576   0.050022   0.018990   0.000063   0.058054
   89  C 23  S    0.109780   0.105252  -0.187742   0.161878  -0.060082
   90  C 23  X    0.005341   0.150828   0.078464   0.024020   0.104976
   91  C 23  Y   -0.032807   0.135761   0.068407   0.054013   0.082732
   92  C 23  Z   -0.073361  -0.016306   0.023539   0.136032  -0.043569
   93  C 24  S   -0.203390   0.052246   0.016335   0.058642  -0.141931
   94  C 24  X   -0.072318  -0.017193   0.146686   0.206981   0.093214
   95  C 24  Y   -0.109176  -0.036447  -0.035417  -0.076051   0.038231
   96  C 24  Z    0.110936   0.049814  -0.015615   0.005449  -0.069791
   97  C 25  S    0.092480  -0.125059   0.173553   0.183505   0.043421
   98  C 25  X    0.017251  -0.209642  -0.087602  -0.045766   0.146398
   99  C 25  Y   -0.083430  -0.016612  -0.007373   0.030634   0.028371
  100  C 25  Z    0.166550   0.014734   0.036169  -0.116161  -0.061757
  101  C 26  S    0.031015  -0.103977  -0.175869  -0.093659   0.144351
  102  C 26  X    0.009671   0.181385  -0.070131  -0.109308  -0.096401
  103  C 26  Y   -0.086924   0.131839  -0.029794  -0.115263  -0.019884
  104  C 26  Z    0.142104  -0.025247  -0.050777   0.050124  -0.088639
  105  C 27  S    0.083901   0.132828   0.172854  -0.176388   0.049320
  106  C 27  X   -0.010145  -0.206940   0.100637  -0.049992  -0.139157
  107  C 27  Y   -0.080606   0.013469  -0.002317  -0.029285   0.028086
  108  C 27  Z   -0.170015   0.006416  -0.034968  -0.104108   0.064917
  109  C 28  S    0.025361   0.101474  -0.191836   0.085838   0.148488
  110  C 28  X   -0.013995   0.180881   0.066042  -0.093271   0.089077
  111  C 28  Y   -0.078436  -0.138820  -0.036976   0.111997  -0.018157
  112  C 28  Z   -0.140105  -0.025264   0.044984   0.056539   0.090667

                     21         22         23         24         25
                   -0.7603    -0.7481    -0.7273    -0.6931    -0.6900
                     A          A          A          A          A   
    1  C  1  S    0.064289   0.150313  -0.002005   0.037667  -0.078601
    2  C  1  X   -0.050719  -0.022010  -0.064217  -0.028217  -0.111704
    3  C  1  Y    0.035128   0.015099   0.104854  -0.080888  -0.067578
    4  C  1  Z    0.090355   0.022822   0.213421  -0.110792   0.032778
    5  C  2  S   -0.071597   0.006361  -0.010857  -0.078260  -0.137275
    6  C  2  X   -0.037052  -0.092331  -0.018032   0.041200   0.090347
    7  C  2  Y   -0.015229  -0.006694   0.015229  -0.114876   0.002574
    8  C  2  Z   -0.041875   0.009539   0.038446  -0.277948   0.049547
    9  C  3  S   -0.021675  -0.076874   0.157916   0.218335   0.058448
   10  C  3  X   -0.033403  -0.060167   0.039345  -0.098747  -0.077053
   11  C  3  Y   -0.014176  -0.092552  -0.120737   0.014954  -0.155378
   12  C  3  Z   -0.026003  -0.075371  -0.094325  -0.034479  -0.140156
   13  C  4  S   -0.216497  -0.102625  -0.135642  -0.023157   0.096509
   14  C  4  X    0.077078  -0.166920  -0.083704  -0.047604   0.039750
   15  C  4  Y    0.096692   0.099679  -0.143830   0.130211  -0.024459
   16  C  4  Z   -0.015502   0.144475   0.015750   0.077549  -0.044844
   17  C  5  S    0.158461  -0.207798   0.016041  -0.112330  -0.091016
   18  C  5  X    0.216488   0.184693  -0.073682  -0.008417  -0.043354
   19  C  5  Y    0.019727  -0.067692  -0.181986  -0.151448   0.256171
   20  C  5  Z   -0.044450  -0.025633   0.030109   0.038010  -0.019502
   21  C  6  S    0.086577   0.235490   0.026398  -0.108463   0.098811
   22  C  6  X   -0.259792   0.123525   0.071273   0.007703  -0.058995
   23  C  6  Y    0.004048  -0.072723   0.197794   0.157151   0.233612
   24  C  6  Z   -0.053190   0.015581   0.031587   0.037518   0.008933
   25  C  7  S    0.127597   0.128264  -0.114423  -0.033849   0.138961
   26  C  7  X   -0.011818  -0.005885   0.035415   0.030408   0.015726
   27  C  7  Y   -0.060152   0.038305   0.059210  -0.005931  -0.024408
   28  C  7  Z    0.126156  -0.125157  -0.164594  -0.037300  -0.016718
   29  C  8  S   -0.033957   0.123770  -0.006784  -0.016677  -0.072167
   30  C  8  X   -0.094048   0.020104   0.013264  -0.021460   0.064145
   31  C  8  Y   -0.044883  -0.038175   0.044927   0.047610  -0.082684
   32  C  8  Z    0.206832  -0.052072  -0.050222   0.040386  -0.127391
   33  C  9  S    0.131543  -0.092467  -0.133328  -0.047458  -0.127625
   34  C  9  X    0.063674   0.001097  -0.035915  -0.030985   0.024816
   35  C  9  Y    0.003188   0.047435  -0.059118   0.006255  -0.016139
   36  C  9  Z    0.098315   0.162245  -0.158654  -0.033128   0.040756
   37  C 10  S    0.081340  -0.124557  -0.009064  -0.008346   0.079571
   38  C 10  X    0.063150   0.027487  -0.010964   0.024625   0.060563
   39  C 10  Y    0.048729  -0.025058  -0.054961  -0.060692  -0.082394
   40  C 10  Z    0.118697   0.083704  -0.038457   0.044702   0.122464
   41  C 11  S   -0.213497   0.053782  -0.140335  -0.019684  -0.088966
   42  C 11  X    0.038176  -0.171030   0.079452   0.054599   0.043134
   43  C 11  Y   -0.047241   0.080900   0.142229  -0.123718  -0.016031
   44  C 11  Z    0.044209  -0.135980   0.020318   0.077373   0.041499
   45  C 12  S    0.058045   0.167766  -0.000171   0.056412   0.068409
   46  C 12  X    0.049554   0.034750  -0.066269   0.020756  -0.107222
   47  C 12  Y    0.021127   0.017413  -0.098850  -0.081252   0.097929
   48  C 12  Z   -0.079939  -0.027081   0.212872   0.133571   0.028003
   49  C 13  S   -0.070375  -0.001224   0.026084  -0.058500   0.154367
   50  C 13  X    0.024834   0.098097  -0.013838  -0.032862   0.093260
   51  C 13  Y   -0.015112  -0.000320  -0.008613  -0.095753   0.033524
   52  C 13  Z    0.047346  -0.016786   0.019022   0.291419   0.032311
   53  C 14  S   -0.028171  -0.082794  -0.170520   0.216773  -0.056100
   54  C 14  X    0.047924   0.034072   0.035469   0.084113  -0.093953
   55  C 14  Y   -0.011216  -0.087996   0.122157   0.038895   0.167324
   56  C 14  Z    0.017227   0.053313  -0.093107   0.037497  -0.116691
   57  C 15  S   -0.221550  -0.100048   0.150874  -0.014692  -0.088811
   58  C 15  X   -0.082532   0.170892  -0.076340   0.049780   0.039005
   59  C 15  Y    0.110838   0.113404   0.129201   0.153523  -0.002468
   60  C 15  Z    0.006283  -0.129323   0.026098  -0.063195  -0.027981
   61  C 16  S    0.154224  -0.189753  -0.024800  -0.105444   0.114047
   62  C 16  X   -0.234533  -0.183194  -0.061821   0.008386  -0.034677
   63  C 16  Y    0.031309  -0.087159   0.191118  -0.161794  -0.236207
   64  C 16  Z    0.042749   0.024728   0.026547  -0.020560  -0.013016
   65  C 17  S    0.094041   0.223783  -0.021899  -0.117214  -0.097944
   66  C 17  X    0.275594  -0.123961   0.051329  -0.012151  -0.043511
   67  C 17  Y   -0.008606  -0.087357  -0.209934   0.137190  -0.227931
   68  C 17  Z    0.042808  -0.012067   0.025364  -0.018408   0.014671
   69  C 18  S   -0.042953   0.129111   0.020361  -0.013978   0.056989
   70  C 18  X    0.089824   0.003525   0.013605   0.032072   0.056753
   71  C 18  Y   -0.069451  -0.034831  -0.043667   0.042803   0.104375
   72  C 18  Z   -0.201449   0.036116  -0.037297  -0.055681  -0.124076
   73  C 19  S    0.069369  -0.138950   0.003954  -0.014613  -0.069483
   74  C 19  X   -0.068085  -0.006466  -0.011755  -0.025738   0.053190
   75  C 19  Y    0.042270  -0.021844   0.056238  -0.043101   0.104455
   76  C 19  Z   -0.149030  -0.067159  -0.036159  -0.040285   0.123745
   77  C 20  S    0.120612  -0.089822   0.119428  -0.020597   0.151576
   78  C 20  X   -0.056113   0.020293  -0.035057   0.025523   0.005137
   79  C 20  Y    0.007965   0.036537   0.050196   0.017257   0.021538
   80  C 20  Z   -0.120964  -0.136923  -0.162828   0.035711   0.050895
   81  C 21  S   -0.205974   0.049001   0.152837  -0.002318   0.072713
   82  C 21  X   -0.022160   0.176314   0.093434  -0.050992   0.045494
   83  C 21  Y   -0.073932   0.091687  -0.128023  -0.144929   0.011362
   84  C 21  Z   -0.049574   0.120481   0.036601  -0.062900   0.033697
   85  C 22  S    0.017633   0.086633  -0.161957   0.224215   0.055363
   86  C 22  X   -0.004590   0.043457  -0.042173  -0.088835  -0.069874
   87  C 22  Y    0.016960  -0.077680  -0.120591  -0.018313   0.184238
   88  C 22  Z    0.005544  -0.052540  -0.084466   0.049035   0.124513
   89  C 23  S    0.150519   0.120347   0.107442  -0.030410  -0.145593
   90  C 23  X    0.013358   0.016585   0.038640  -0.023564  -0.003241
   91  C 23  Y   -0.055003   0.031929  -0.050557  -0.010848   0.014834
   92  C 23  Z   -0.126023   0.121813  -0.154873   0.033694  -0.043486
   93  C 24  S    0.033478   0.074130   0.146887   0.219404  -0.082897
   94  C 24  X    0.019830  -0.050729  -0.049652   0.088198  -0.070887
   95  C 24  Y    0.015798  -0.088613   0.112877  -0.019383  -0.165025
   96  C 24  Z   -0.014398   0.075822  -0.087237  -0.032542   0.146917
   97  C 25  S   -0.089151  -0.023540  -0.003258  -0.073037   0.146903
   98  C 25  X   -0.014913  -0.094621   0.032953  -0.038425   0.087300
   99  C 25  Y    0.005870  -0.001125  -0.016850   0.110553  -0.007272
  100  C 25  Z   -0.021219  -0.012420   0.037976  -0.269368  -0.043374
  101  C 26  S    0.023771  -0.144283  -0.002693   0.034961   0.077788
  102  C 26  X    0.100300  -0.006925   0.046384   0.022334  -0.112675
  103  C 26  Y   -0.032596   0.012860  -0.109337   0.077292  -0.076361
  104  C 26  Z    0.147041  -0.002174   0.205945  -0.109435  -0.028618
  105  C 27  S   -0.103013  -0.031463   0.021861  -0.074390  -0.162934
  106  C 27  X    0.009085   0.099400   0.023980   0.046190   0.076696
  107  C 27  Y    0.004709   0.000090   0.005562   0.100847   0.021440
  108  C 27  Z    0.013233   0.010546   0.024170   0.274615  -0.056230
  109  C 28  S    0.031279  -0.155397  -0.000314   0.042745  -0.061353
  110  C 28  X   -0.096705   0.007470   0.056108  -0.033116  -0.111504
  111  C 28  Y   -0.012264   0.020135   0.096164   0.087592   0.084109
  112  C 28  Z   -0.133690  -0.005769   0.215335   0.126623  -0.053688

                     26         27         28         29         30
                   -0.6596    -0.6577    -0.6560    -0.6438    -0.6251
                     A          A          A          A          A   
    1  C  1  S   -0.006761  -0.134576   0.079921  -0.126314   0.066128
    2  C  1  X    0.060911  -0.017835  -0.161144   0.051573   0.215112
    3  C  1  Y    0.152466  -0.123000  -0.031454   0.049950   0.064138
    4  C  1  Z   -0.139678  -0.026394  -0.009391   0.037510   0.019623
    5  C  2  S    0.108938   0.105787   0.054011   0.119143  -0.003309
    6  C  2  X   -0.114216   0.146362   0.171444   0.072207  -0.233700
    7  C  2  Y    0.119961  -0.040722   0.052236  -0.017285  -0.106505
    8  C  2  Z   -0.052657   0.114653  -0.092113  -0.063282  -0.034695
    9  C  3  S    0.001981  -0.037960   0.010913  -0.055076  -0.054091
   10  C  3  X   -0.007430  -0.141242  -0.055535  -0.238876  -0.003524
   11  C  3  Y    0.028342  -0.036696   0.181400   0.040699  -0.191953
   12  C  3  Z   -0.158435   0.042585   0.052351  -0.024844  -0.069506
   13  C  4  S    0.036180  -0.003075  -0.023506   0.007273  -0.108210
   14  C  4  X   -0.083137  -0.045131  -0.032330  -0.170981   0.116664
   15  C  4  Y   -0.007116   0.000944   0.095101  -0.133246  -0.075234
   16  C  4  Z   -0.124667   0.107358   0.005199   0.053080   0.007015
   17  C  5  S   -0.009838  -0.046465   0.051506   0.001447  -0.027040
   18  C  5  X   -0.053257   0.027570   0.036901   0.130042  -0.121018
   19  C  5  Y    0.019243  -0.041220  -0.133015   0.018826  -0.102019
   20  C  5  Z   -0.128707   0.065823  -0.040990  -0.038372   0.115379
   21  C  6  S    0.056781   0.014563  -0.027451   0.012228  -0.034355
   22  C  6  X    0.048056   0.007278   0.035789  -0.138415   0.117808
[...]
   61  C 16  S    0.003380  -0.017229   0.019300   0.003613  -0.031247
   62  C 16  X    0.030166   0.003619   0.032431   0.004488  -0.000516
   63  C 16  Y   -0.018193   0.047655   0.022906  -0.005946   0.060533
   64  C 16  Z    0.111103  -0.112836   0.147805   0.015086  -0.270293
   65  C 17  S    0.003160   0.016944  -0.018949   0.003860   0.030173
   66  C 17  X   -0.030179   0.003872   0.032397  -0.004760   0.000287
   67  C 17  Y    0.018401   0.047650   0.023140   0.006037   0.060322
   68  C 17  Z    0.110712   0.112072  -0.147570   0.016929   0.269268
   69  C 18  S    0.027107  -0.029479  -0.040407   0.055576   0.048708
   70  C 18  X    0.146402  -0.155107  -0.163032   0.224640   0.075242
   71  C 18  Y   -0.014100   0.061821   0.021011  -0.075082   0.033374
   72  C 18  Z    0.050755  -0.062775  -0.041868   0.121775   0.028048
   73  C 19  S    0.027359   0.029257   0.040797   0.055093  -0.049169
   74  C 19  X   -0.147789  -0.154645  -0.164595  -0.223213   0.076081
   75  C 19  Y    0.014365   0.061814   0.021609   0.075058   0.033341
   76  C 19  Z    0.051173   0.062426   0.042535   0.121206  -0.028479
   77  C 20  S    0.011350  -0.025642  -0.027233  -0.066889  -0.011088
   78  C 20  X   -0.019752   0.164337   0.078391   0.203990   0.018113
   79  C 20  Y    0.051821  -0.170395  -0.046663  -0.208139  -0.057755
   80  C 20  Z    0.047047  -0.076926   0.002021  -0.089375   0.040623
   81  C 21  S    0.007942   0.028500   0.018525  -0.017106   0.064664
   82  C 21  X   -0.099826  -0.121483  -0.069299  -0.006180  -0.105062
   83  C 21  Y   -0.044816  -0.090362  -0.062140  -0.043292  -0.071152
   84  C 21  Z    0.178425   0.208369   0.167828   0.056502   0.107154
   85  C 22  S   -0.019645   0.034387   0.027244   0.003610   0.016399
   86  C 22  X   -0.066780   0.006268   0.037691   0.009243   0.015731
   87  C 22  Y    0.161997  -0.088358  -0.183793   0.053462  -0.033680
   88  C 22  Z   -0.214564   0.101660   0.206625  -0.072242   0.109795
   89  C 23  S    0.011326   0.025685   0.026786  -0.067200   0.011236
   90  C 23  X    0.020009   0.164548   0.076838  -0.204593   0.018577
   91  C 23  Y   -0.051916  -0.170477  -0.045101   0.208440  -0.057967
   92  C 23  Z    0.047169   0.077038  -0.002466  -0.089716  -0.040544
   93  C 24  S    0.019872  -0.034468   0.027655   0.003495   0.016032
   94  C 24  X   -0.066918   0.006370  -0.037727  -0.009207  -0.015754
   95  C 24  Y   -0.162210   0.088639  -0.183497   0.053483  -0.033915
   96  C 24  Z   -0.215108   0.101988  -0.206761   0.072302  -0.109447
   97  C 25  S    0.031315   0.022344  -0.030994   0.012764   0.029873
   98  C 25  X    0.012806  -0.009873  -0.003004   0.007455   0.055011
   99  C 25  Y   -0.269035  -0.100000   0.228141  -0.181810  -0.088640
  100  C 25  Z   -0.081270  -0.023164   0.118916  -0.093098  -0.043613
  101  C 26  S   -0.012942   0.028145  -0.006895   0.009516  -0.077108
  102  C 26  X    0.036217   0.094760  -0.044994  -0.039576  -0.152529
  103  C 26  Y   -0.024106  -0.142242   0.021583   0.112209   0.218862
  104  C 26  Z   -0.045205  -0.107472   0.023325   0.096669   0.147437
  105  C 27  S   -0.031357  -0.022352  -0.030862   0.012664   0.029819
  106  C 27  X    0.012843  -0.009768   0.003177  -0.007507  -0.055213
  107  C 27  Y    0.269007   0.100121   0.228112  -0.181535  -0.088633
  108  C 27  Z   -0.081648  -0.023245  -0.119038   0.093137   0.043674
  109  C 28  S    0.012962  -0.028082  -0.006844   0.009523  -0.077259
  110  C 28  X    0.036323   0.094671   0.045247   0.039674   0.152870
  111  C 28  Y    0.024413   0.142101   0.022115   0.112216   0.219356
  112  C 28  Z   -0.045387  -0.107353  -0.023756  -0.096721  -0.147842

                     61         62         63         64         65
                   -0.0536    -0.0518    -0.0493    -0.0424    -0.0400
                     A          A          A          A          A   
    1  C  1  S   -0.082267   0.126595  -0.064414  -0.060804   0.049630
    2  C  1  X    0.106495  -0.081736   0.097496   0.043119  -0.094293
    3  C  1  Y   -0.052776   0.162677  -0.060712  -0.072609   0.056099
    4  C  1  Z    0.076745  -0.065506   0.106196  -0.054286   0.049223
    5  C  2  S   -0.071275  -0.144340  -0.024541   0.046679   0.031819
    6  C  2  X   -0.061715   0.031802  -0.054884   0.007679   0.025288
    7  C  2  Y   -0.124326  -0.269759  -0.067167   0.055345  -0.003655
    8  C  2  Z    0.030707   0.037199   0.068420  -0.043993   0.002252
    9  C  3  S    0.117595   0.008682   0.079467  -0.098296  -0.083349
   10  C  3  X    0.032952  -0.064534   0.042510  -0.063112  -0.092548
   11  C  3  Y    0.116200   0.059154   0.127974  -0.060484  -0.044823
   12  C  3  Z   -0.149394   0.005924  -0.207005   0.039194   0.039102
   13  C  4  S    0.136033  -0.050913   0.108483  -0.099294   0.057862
   14  C  4  X   -0.130637   0.007161  -0.123164   0.112250  -0.109719
   15  C  4  Y    0.053419  -0.050864   0.068727   0.076769  -0.074523
   16  C  4  Z   -0.200123  -0.040543  -0.228544   0.047088   0.017429
   17  C  5  S   -0.100322  -0.050036  -0.077291   0.024630   0.021786
   18  C  5  X    0.126928  -0.002401   0.108845  -0.021043  -0.000367
   19  C  5  Y    0.056487   0.012552   0.042211   0.064086  -0.046906
   20  C  5  Z    0.121156   0.255578   0.159605  -0.080553  -0.006606
   21  C  6  S   -0.100060   0.051638  -0.076458  -0.025244   0.021542
   22  C  6  X   -0.126744  -0.000097  -0.108826  -0.021831  -0.000083
   23  C  6  Y   -0.056876   0.013579  -0.042781   0.063547   0.048428
   24  C  6  Z    0.119706  -0.258938   0.156030   0.081696  -0.004438
   25  C  7  S   -0.032439  -0.072239   0.006310  -0.164014   0.164515
   26  C  7  X   -0.001477   0.051516   0.018299   0.147025  -0.170101
   27  C  7  Y    0.075050   0.075939   0.052306   0.136100  -0.148949
   28  C  7  Z   -0.020066   0.008573   0.057410   0.051133  -0.047271
   29  C  8  S   -0.083143   0.032156  -0.024847   0.224204  -0.211786
   30  C  8  X    0.110902  -0.034312   0.027621  -0.218314   0.239698
   31  C  8  Y   -0.030873  -0.018660  -0.019039   0.002476   0.003871
   32  C  8  Z    0.029902  -0.023877   0.047528  -0.052865   0.059343
   33  C  9  S   -0.032878   0.073082   0.007000   0.162945   0.166751
   34  C  9  X    0.001326   0.052987  -0.018060   0.145761   0.172119
   35  C  9  Y   -0.075359   0.077897  -0.051356   0.134684   0.151110
   36  C  9  Z   -0.020216  -0.009754   0.057835  -0.050334  -0.047707
   37  C 10  S   -0.082770  -0.032662  -0.024210  -0.222820  -0.213957
   38  C 10  X   -0.110974  -0.035242  -0.026931  -0.216937  -0.242429
   39  C 10  Y    0.030904  -0.019201   0.018459   0.002613  -0.004186
   40  C 10  Z    0.029740   0.023411   0.047580   0.052695   0.060531
   41  C 11  S    0.135817   0.049140   0.108671   0.099610   0.059129
   42  C 11  X    0.130843   0.005071   0.122788   0.112484   0.111253
   43  C 11  Y   -0.053907  -0.049301  -0.069938   0.075654   0.075246
   44  C 11  Z   -0.199715   0.045517  -0.227168  -0.048677   0.016145
   45  C 12  S    0.081745  -0.125304  -0.067754  -0.060949  -0.050611
   46  C 12  X    0.105673  -0.079696  -0.100165  -0.043158  -0.095127
   47  C 12  Y    0.052672  -0.161177  -0.064237  -0.072058  -0.056921
   48  C 12  Z    0.075614  -0.063071  -0.108496   0.054305   0.049404
   49  C 13  S    0.070748   0.144806  -0.022707   0.046458  -0.031297
   50  C 13  X   -0.061190   0.030690   0.056286  -0.007605   0.025375
   51  C 13  Y    0.122821   0.270835  -0.063946   0.054123   0.004293
   52  C 13  Z    0.029417   0.038328  -0.068162   0.043846   0.002767
   53  C 14  S   -0.116221  -0.010139   0.080508  -0.098170   0.082339
   54  C 14  X    0.032202  -0.063653  -0.043887   0.063407  -0.091988
   55  C 14  Y   -0.114498  -0.061694   0.128609  -0.060357   0.044384
   56  C 14  Z   -0.146550   0.002127   0.208940  -0.038906   0.038865
   57  C 15  S   -0.134470   0.048328   0.111228  -0.098248  -0.058152
   58  C 15  X   -0.129278   0.004552   0.125462  -0.111057  -0.110346
   59  C 15  Y   -0.052972   0.049594   0.070439   0.076250   0.075417
   60  C 15  Z   -0.197190  -0.045537   0.230567  -0.046744   0.017642
   61  C 16  S    0.099408   0.052211  -0.078039   0.025175  -0.021913
   62  C 16  X    0.125231  -0.000179  -0.110415   0.020837  -0.000512
   63  C 16  Y   -0.056011  -0.013155   0.042765   0.062619   0.047396
   64  C 16  Z    0.117869   0.258006  -0.156466   0.080053  -0.006291
   65  C 17  S    0.098971  -0.050661  -0.078424  -0.025022  -0.021713
   66  C 17  X   -0.125581  -0.001890   0.110757   0.021188   0.000233
   67  C 17  Y    0.056365  -0.012690  -0.043787   0.063127  -0.047757
   68  C 17  Z    0.118322  -0.255577  -0.161985  -0.080598  -0.005125
   69  C 18  S    0.082482  -0.031247  -0.026858   0.222037   0.213363
   70  C 18  X    0.110361  -0.033235  -0.030239   0.215360   0.241133
   71  C 18  Y    0.030652   0.019279  -0.019058   0.003013  -0.003819
   72  C 18  Z    0.029200  -0.022867  -0.048436   0.051548   0.059678
   73  C 19  S    0.082680   0.032477  -0.025014  -0.223857   0.212117
   74  C 19  X   -0.110644  -0.034960   0.028242   0.217539  -0.240557
   75  C 19  Y   -0.030531   0.018948   0.019093   0.002911   0.004187
   76  C 19  Z    0.029006   0.024010  -0.047568  -0.052093   0.059924
   77  C 20  S    0.032572  -0.072939   0.005628   0.163254  -0.165089
   78  C 20  X    0.001741   0.052175   0.018710  -0.146015   0.170900
   79  C 20  Y    0.074286  -0.076779  -0.053412   0.134644  -0.149956
   80  C 20  Z   -0.021062  -0.008426  -0.057518   0.050389  -0.047463
   81  C 21  S   -0.134311  -0.050396   0.109502   0.099105  -0.058142
   82  C 21  X    0.128995   0.006869  -0.124363  -0.112436   0.110092
   83  C 21  Y    0.052609   0.050312  -0.069449   0.076444  -0.074790
   84  C 21  Z   -0.196479   0.041748   0.230393   0.047343   0.016852
   85  C 22  S   -0.116399   0.008941   0.080302   0.097329   0.082269
   86  C 22  X   -0.032464  -0.064218   0.042366   0.062716   0.092330
   87  C 22  Y    0.114656  -0.059698  -0.129487  -0.060085  -0.043901
   88  C 22  Z   -0.146752  -0.005793   0.208534   0.038927   0.038574
   89  C 23  S    0.032871   0.072337   0.007508  -0.161573  -0.165655
   90  C 23  X   -0.001360   0.051826  -0.017097  -0.144524  -0.171074
   91  C 23  Y   -0.074822  -0.077291   0.051720   0.133257   0.149883
   92  C 23  Z   -0.020758   0.009467  -0.056900  -0.050411  -0.047798
   93  C 24  S    0.117276  -0.010724   0.078643   0.099341  -0.081341
   94  C 24  X   -0.032947  -0.063435  -0.043354  -0.063961   0.091846
   95  C 24  Y   -0.116258   0.061878  -0.126912  -0.061534   0.043233
   96  C 24  Z   -0.149475  -0.002040  -0.206550  -0.040362   0.037740
   97  C 25  S   -0.070978   0.145374  -0.021746  -0.047209   0.030124
   98  C 25  X    0.061860   0.030549   0.055068   0.008266  -0.024923
   99  C 25  Y    0.122999  -0.271657   0.062383   0.055980   0.006718
  100  C 25  Z    0.030327  -0.038551   0.067987   0.044203   0.003018
  101  C 26  S   -0.082473  -0.125473  -0.066572   0.059873   0.050084
  102  C 26  X   -0.106909  -0.080103  -0.098452   0.041735   0.094136
  103  C 26  Y    0.053239   0.162001   0.062696  -0.071909  -0.057288
  104  C 26  Z    0.076855   0.063927   0.106345   0.054318   0.049090
  105  C 27  S    0.070863  -0.144690  -0.025542  -0.045955  -0.030550
  106  C 27  X    0.060907   0.031337  -0.055233  -0.007540  -0.025106
  107  C 27  Y   -0.122696   0.269611   0.069333   0.053817  -0.006136
  108  C 27  Z    0.029803  -0.036926  -0.069034  -0.043945   0.002496
  109  C 28  S    0.081250   0.125993  -0.065154   0.060876  -0.049759
  110  C 28  X   -0.105163  -0.080983   0.098313  -0.043453   0.094072
  111  C 28  Y   -0.051786  -0.162069   0.060312  -0.072228   0.056897
  112  C 28  Z    0.075208   0.065157  -0.106215  -0.054948   0.048448

                     66
                   -0.0393
                     A   
    1  C  1  S   -0.099333
    2  C  1  X    0.116278
    3  C  1  Y   -0.023502
    4  C  1  Z   -0.019463
    5  C  2  S   -0.048698
    6  C  2  X   -0.052151
    7  C  2  Y   -0.154228
    8  C  2  Z    0.016525
    9  C  3  S    0.101838
   10  C  3  X    0.069893
   11  C  3  Y    0.097500
   12  C  3  Z   -0.096967
   13  C  4  S    0.111083
   14  C  4  X   -0.087200
   15  C  4  Y    0.027633
   16  C  4  Z   -0.111803
   17  C  5  S   -0.000584
   18  C  5  X    0.056283
   19  C  5  Y   -0.100662
   20  C  5  Z    0.075898
   21  C  6  S    0.000722
   22  C  6  X    0.056362
   23  C  6  Y   -0.100047
   24  C  6  Z   -0.076670
   25  C  7  S    0.136084
   26  C  7  X   -0.132491
   27  C  7  Y   -0.175090
   28  C  7  Z   -0.037699
   29  C  8  S   -0.076543
   30  C  8  X    0.129871
   31  C  8  Y    0.052082
   32  C  8  Z    0.125038
   33  C  9  S   -0.134502
   34  C  9  X   -0.130999
   35  C  9  Y   -0.173470
   36  C  9  Z    0.036900
   37  C 10  S    0.074643
   38  C 10  X    0.127839
   39  C 10  Y    0.051898
   40  C 10  Z   -0.124378
   41  C 11  S   -0.110369
   42  C 11  X   -0.086492
   43  C 11  Y    0.028169
   44  C 11  Z    0.111932
   45  C 12  S    0.098800
   46  C 12  X    0.116127
   47  C 12  Y    0.023140
   48  C 12  Z   -0.018738
   49  C 13  S    0.049099
   50  C 13  X   -0.052252
   51  C 13  Y    0.154721
   52  C 13  Z    0.016869
   53  C 14  S   -0.102636
   54  C 14  X    0.070593
   55  C 14  Y   -0.098517
   56  C 14  Z   -0.097573
   57  C 15  S   -0.111946
   58  C 15  X   -0.088597
   59  C 15  Y   -0.027240
   60  C 15  Z   -0.112746
   61  C 16  S    0.001031
   62  C 16  X    0.056512
   63  C 16  Y    0.101135
   64  C 16  Z    0.076593
   65  C 17  S   -0.001178
   66  C 17  X    0.056676
   67  C 17  Y    0.100734
   68  C 17  Z   -0.076922
   69  C 18  S    0.078421
   70  C 18  X    0.131470
   71  C 18  Y   -0.051780
   72  C 18  Z    0.125327
   73  C 19  S   -0.076788
   74  C 19  X    0.129815
   75  C 19  Y   -0.051970
   76  C 19  Z   -0.124980
   77  C 20  S    0.136029
   78  C 20  X   -0.132280
   79  C 20  Y    0.174811
   80  C 20  Z    0.037484
   81  C 21  S    0.111654
   82  C 21  X   -0.087749
   83  C 21  Y   -0.027744
   84  C 21  Z    0.112791
   85  C 22  S    0.103348
   86  C 22  X    0.071328
   87  C 22  Y   -0.099359
   88  C 22  Z    0.098265
   89  C 23  S   -0.137082
   90  C 23  X   -0.133454
   91  C 23  Y    0.175667
   92  C 23  Z   -0.038276
   93  C 24  S   -0.102796
   94  C 24  X    0.070838
   95  C 24  Y    0.098564
   96  C 24  Z    0.097602
   97  C 25  S    0.049540
   98  C 25  X   -0.052240
   99  C 25  Y   -0.154765
  100  C 25  Z   -0.016630
  101  C 26  S    0.099133
  102  C 26  X    0.116713
  103  C 26  Y   -0.023216
  104  C 26  Z    0.020148
  105  C 27  S   -0.049805
  106  C 27  X   -0.052472
  107  C 27  Y    0.155115
  108  C 27  Z   -0.016961
  109  C 28  S   -0.099134
  110  C 28  X    0.117069
  111  C 28  Y    0.023337
  112  C 28  Z    0.019248

     ----------------------------------------------------------------
     PROPERTY VALUES FOR THE RHF   SELF-CONSISTENT FIELD WAVEFUNCTION
     ----------------------------------------------------------------

                    -------------
                    MOPAC CHARGES
                    -------------
         ATOM NO.   TYPE          CHARGE        ATOM  ELECTRON DENSITY
           1         C             -0.0111          4.0111
           2         C              0.0149          3.9851
           3         C             -0.0258          4.0258
           4         C              0.0292          3.9708
           5         C              0.0085          3.9915
           6         C              0.0083          3.9917
           7         C              0.0185          3.9815
           8         C             -0.0338          4.0338
           9         C              0.0183          3.9817
          10         C             -0.0337          4.0337
          11         C              0.0290          3.9710
          12         C             -0.0112          4.0112
          13         C              0.0148          3.9852
          14         C             -0.0260          4.0260
          15         C              0.0290          3.9710
          16         C              0.0088          3.9912
          17         C              0.0086          3.9914
          18         C             -0.0336          4.0336
          19         C             -0.0337          4.0337
          20         C              0.0183          3.9817
          21         C              0.0288          3.9712
          22         C             -0.0258          4.0258
          23         C              0.0183          3.9817
          24         C             -0.0257          4.0257
          25         C              0.0146          3.9854
          26         C             -0.0111          4.0111
          27         C              0.0144          3.9856
          28         C             -0.0110          4.0110

          ---------------------
          ELECTROSTATIC MOMENTS
          ---------------------

 POINT   1           X           Y           Z (ANGS)      CHARGE
                 0.000000    0.000000    0.000000        0.00 (A.U.)
         DX          DY          DZ         /D/  (DEBYE)
     0.001520    0.001328    0.000051    0.002019
 ...... END OF PROPERTY EVALUATION ......
 CPU     0: STEP CPU TIME=     0.03 TOTAL CPU TIME=          0.7 (      0.0 MIN)
 TOTAL WALL CLOCK TIME=          0.7 SECONDS, CPU UTILIZATION IS    96.94%
  $VIB   
          IVIB=   0 IATOM=   0 ICOORD=   0 E=     -120.7858857245
 -4.260310730E-04 6.403069130E-05-1.523591478E-05 5.662491855E-04 2.373592331E-04
  6.746867878E-04 1.074537952E-04 6.111647635E-04 1.441347264E-04-1.969962257E-04
  3.710715400E-04-5.763249844E-05 2.577292470E-04-3.236140559E-04-9.435032258E-05
  4.819211042E-05-3.935900389E-04-4.731427034E-05-3.439982417E-04-1.834924906E-04
  4.167798509E-04-3.454710373E-04-8.992226290E-05 3.745158962E-05 1.878768146E-04
  2.405480247E-04 4.190037786E-05 2.766756218E-04-4.977403328E-05 1.599063516E-04
 -9.083511394E-05-6.546818720E-05-2.810984499E-04 3.622818402E-04-9.968095677E-05
  2.293326733E-04-4.109184324E-04 3.026660344E-04-8.658779619E-04-3.165480819E-05
  2.446437324E-04-3.509701019E-05-2.422955273E-04 3.919067187E-04-1.353485156E-04
 -9.433177729E-06 6.211621888E-05 7.534084916E-04 6.606780917E-05-1.252879871E-04
  7.546271486E-05 4.079398407E-04 2.045971281E-05-2.180131458E-04-3.464266817E-04
  5.860061365E-05 1.892587285E-05-2.301691848E-04 2.264616597E-04-1.214046486E-04
  9.668486851E-05-2.224393760E-04 1.511196005E-04-2.790429788E-04-2.298303383E-04
 -1.650866764E-04 2.820331571E-04-2.694152061E-04-5.088934888E-04 1.850089253E-04
 -1.233743161E-04-2.686580534E-04 2.285956592E-05-2.166507223E-04 3.759602197E-04
  1.583351433E-04-1.847309241E-04 2.637613689E-04 2.867487303E-04-3.156724582E-04
 -4.220301645E-04-3.588641722E-04 6.191441081E-05-1.067895045E-04
  1.520254318E-03 1.327863688E-03 5.081808128E-05
 ......END OF GEOMETRY SEARCH......
 CPU     0: STEP CPU TIME=     0.02 TOTAL CPU TIME=          0.7 (      0.0 MIN)
 TOTAL WALL CLOCK TIME=          0.7 SECONDS, CPU UTILIZATION IS    97.37%
                580000  WORDS OF DYNAMIC MEMORY USED
 EXECUTION OF GAMESS TERMINATED NORMALLY 21:02:30 22-MAY-2023    
 DDI: 263640 bytes (0.3 MB / 0 MWords) used by master data server.

 ----------------------------------------
 CPU timing information for all processes
 ========================================
 0: 0.531250 + 0.328125 = 0.859375
 1: 0.437500 + 0.125000 = 0.562500
 2: 0.296875 + 0.390625 = 0.687500
 3: 0.234375 + 0.312500 = 0.546875
 ----------------------------------------
           Disk usage (in bytes)       
 ========================================
 ----------------------------------------
            Local date and time          
 ========================================
22.05.2023 - 21:02:30,66                          
