          *******************************************************
          *                                                     *
          *          GAMESS VERSION = 30 SEP 2022 (R2)          *
          *                                                     *
          *              doi.org/10.1063/5.0005188              *
          *                                                     *
          *************** 64 BIT WINDOWS VERSION ****************

  GAMESS HAS BEEN MADE POSSIBLE WITH IMPORTANT CONTRIBUTIONS FROM
  THE FOLLOWING INDIVIDUALS (IN ALPHABETICAL ORDER):

     IVANA ADAMOVIC, CHRISTINE AIKENS, TOMOKO AKAMA,
     MELISA ALKAN, YURI ALEXEEV, YURIKO AOKI, POOJA ARORA,
     TOSHIO ASADA, ANDREY ASADCHEV, KIM K. BALDRIDGE,
     PRADIPTA BANDYOPADHYAY, TAYLOR A. BARNES, MARIA BARYSZ,
     ROB BELL, JONATHAN BENTZ, COLLEEN BERTONI,
     JERRY A. BOATZ, BRETT BODE, KURT BRORSEN, KURT R. BRORSEN,
     LAIMUTIS BYTAUTAS, CALEB CARLIN, LAURA CARRINGTON,
     GALINA CHABAN, BENOIT CHAMPAGNE, WEI CHEN, MAHITO CHIBA,
     DAN CHIPMAN, CHEOL HO CHOI, TANNER CULPITT,
     DIPAYAN DATTA, PAUL DAY, ALBERT DEFUSCO,
     NUWAN DESILVA, J. EMILIANO DEUSTUA,
     TIM DUDLEY, MICHEL DUPUIS, STEVEN T. ELBERT,
     DMITRI FEDOROV, KATHERINE FERRERAS, MICHAEL FILATOV,
     ALEX FINDLATER,GRAHAM FLETCHER, MARK FREITAG,
     CHRISTIAN FRIEDL, DAVID GARMER, 
     IGOR S. GERASIMOV, KURT GLAESEMANN,
     MARK S. GORDON, JEFFREY GOUR, FENG LONG GU,
     EMILIE B. GUIDEZ, ANASTASIA GUNINA, SHARON HAMMES-SCHIFFER,
     MASATAKE HARUTA, KIMIHIKO HIRAO, YASUHIRO IKABATA,
     TZVETELIN IORDANOV, STEPHAN IRLE, KAZUYA ISHIMURA,
     JOE IVANIC, FRANK JENSEN, JAN H. JENSEN, VISVALDAS KAIRYS,
     MUNEAKI KAMIYA, MICHIO KATOUDA, NAOAKI KAWAKAMI, DAN KEMP,
     BERNARD KIRTMAN, KAZUO KITAURA, MARIUSZ KLOBUKOWSKI,
     MASATO KOBAYASHI, KONSTANTIN KOMAROV, PRAKASHAN KORAMBATH,
     JACEK KORCHOWIEC, SHIRO KOSEKI, KAROL KOWALSKI,
     JIMMY KROMANN, STANISLAW KUCHARSKI, HENRY KURTZ,
     SAROM SOK LEANG, SEUNGHOON LEE, HUI LI, SHUHUA LI, WEI LI,
     JESSE LUTZ, ALEKSANDR O. LYKHIN, MARCIN MAKOWSKI,
     JOANI MATO, NIKITA MATSUNAGA, BENEDETTA MENNUCCI,
     GRANT MERRILL, NORIYUKI MINEZAWA, VLADIMIR MIRONOV,
     EISAKU MIYOSHI, JOHN A. MONTGOMERY JR., HIROTOSHI MORI,
     JONATHAN MULLIN, MONIKA MUSIAL, SHIGERU NAGASE,
     TAKESHI NAGATA, HIROMI NAKAI, TAKAHITO NAKAJIMA,
     YUYA NAKAJIMA, HARUYUKI NAKANO, HIROYA NAKATA, SEAN NEDD,
     HEATHER NETZLOFF, KIET A. NGUYEN, YOSHIO NISHIMOTO,
     BOSILJKA NJEGIC, RYAN OLSON, MIKE PAK, ROBERTO PEVERATI,
     BUU PHAM, PIOTR PIECUCH, ANNA POMOGAEVA, DAVID POOLE,
     SPENCER PRUITT, OLIVIER QUINET, LUKE ROSKOP,
     KLAUS RUEDENBERG, ANDREW SAND, TOSAPORN SATTASATHUCHANA,
     NOZOMI SAWADA, MICHAEL W. SCHMIDT, PATRICK E. SCHNEIDER,
     JUNJI SEINO, PRACHI SHARMA, JUN SHEN, JIM SHOEMAKER,
     YINAN SHU, DEJUN SI, JONATHAN SKONE, LYUDMILA SLIPCHENKO,
     TONY SMITH, JIE SONG, MARK SPACKMAN, CASPER STEINMANN,
     WALT STEVENS, PEIFENG SU, SHUJUN SU, CHET SWALINA,
     CHINAMI TAKASHIMA, TETSUYA TAKETSUGU, ZHEN TAO,
     NANDUN THELLAMUREGE, SEIKEN TOKURA, JACOPO TOMASI,
     TSUGUKI TOUMA, TAKAO TSUNEDA, HIROAKI UMEDA,
     JORGE LUIS GALVEZ VALLEJO, YALI WANG, SIMON WEBB,
     AARON WEST, THERESA L. WINDUS, MARTA WLOCH,
     PENG XU, KIYOSHI YAGI, SUSUMU YANAGISAWA, YANG YANG,
     SOOHAENG YOO, TAKESHI YOSHIKAWA, FEDERICO ZAHARIEV,
     TOBY ZENG

  WHO ARE SUPPORTED BY THEIR INSTITUTION/UNIVERSITY/COMPANY/GROUP
  (IN ALPHABETICAL ORDER):

     EP ANALYTICS,
     FACULTES UNIVERSITAIRES NOTRE-DAME DE LA PAIX,
     INSTITUTE FOR MOLECULAR SCIENCE, IOWA STATE UNIVERSITY,
     JACKSON STATE UNIVERSITY, JOHANNES KEPLER UNIVERSITY LINZ,
     KYUNGPOOK NATIONAL UNIVERSITY
     KYUSHU UNIVERSITY, MICHIGAN STATE UNIVERSITY,
     MIE UNIVERSITY, THE MOLECULAR SCIENCES SOFTWARE INSTITUTE,
     MOSCOW STATE UNIVERSITY,
     N. COPERNICUS UNIVERSITY, NAGOYA UNIVERSITY,
     NANJING UNIVERSITY, NAT. INST. OF ADVANCED INDUSTRIAL
     SCIENCE AND TECHNOLOGY, NATIONAL INST. OF STANDARDS AND
     TECHNOLOGY, NESMEYANOV INSTITUTE OF ORGANOELEMENT COMPOUNDS
     OF RUSSIAN ACADEMY OF SCIENCES, OSAKA PREFECTURE UNIVERSITY,
     PENNSYLVANIA STATE UNIVERSITY, TOKYO INSTITUTE OF TECHNOLOGY,
     UNIVERSITY OF AARHUS, UNIVERSITY OF ALBERTA,
     UNIVERSITY OF CALIFORNIA AT SANTA BARBARA,
     UNIVERSITY OF COPENHAGEN, UNIVERSITY OF IOWA,
     UNIVERSITY OF MEMPHIS, UNIVERSITY OF MINNESOTA,
     UNIVERSITY OF NEBRASKA, UNIVERSITY OF NEW ENGLAND,
     UNIVERSITY OF NOTRE DAME, UNIVERSITY OF PISA,
     UNIVERSITY OF SILESIA, UNIVERSITY OF TOKYO,
     UNIVERSITY OF ZURICH, WASEDA UNIVERSITY,
     YALE UNIVERSITY

  GAMESS SOFTWARE MANAGEMENT TEAM FOR THIS RELEASE:
     MARK S. GORDON (TEAM LEAD),
     BRETT BODE (SENIOR ADVISOR),
     GIUSEPPE BARCA,
     COLLEEN BERTONI,
     KRISTOPHER KEIPERT (ADVISOR),
     SAROM S. LEANG (DEVELOPMENT LEAD),
     BUU PHAM,
     JACKSON HAYES (WEBSITE ADMINISTRATOR),
     PENG XU


 PARALLEL VERSION RUNNING ON        2 PROCESSORS IN        2 NODES.

 EXECUTION OF GAMESS BEGUN 21:02:39 22-MAY-2023    

            ECHO OF THE FIRST FEW INPUT CARDS -
 INPUT CARD>! (Energy/Geometry) PM3                                                         
 INPUT CARD> $CONTRL                                                                        
 INPUT CARD>COORD=UNIQUE                                                                    
 INPUT CARD>ICHARG=0                                                                        
 INPUT CARD>MAXIT=200                                                                       
 INPUT CARD>MULT=1                                                                          
 INPUT CARD>RUNTYP=OPTIMIZE                                                                 
 INPUT CARD>SCFTYP=RHF                                                                      
 INPUT CARD>UNITS=ANGS                                                                      
 INPUT CARD>! DFTTYP=PBE                                                                    
 INPUT CARD> $END                                                                           
 INPUT CARD> $DFT                                                                           
 INPUT CARD>METHOD=GRID                                                                     
 INPUT CARD> $END                                                                           
 INPUT CARD> $BASIS                                                                         
 INPUT CARD>! EXTFIL=.T.                                                                    
 INPUT CARD>! GBASIS=GEGSSBAS                                                               
 INPUT CARD>! NGAUSS=6                                                                      
 INPUT CARD>GBASIS=PM3                                                                      
 INPUT CARD>! NDFUNC=1                                                                      
 INPUT CARD>! NPFUNC=1                                                                      
 INPUT CARD> $END                                                                           
 INPUT CARD> $SCF                                                                           
 INPUT CARD>DAMP=.F.                                                                        
 INPUT CARD>DEM=.F.                                                                         
 INPUT CARD>DIIS=.F.                                                                        
 INPUT CARD>DIRSCF=.T.                                                                      
 INPUT CARD>EXTRAP=.T.                                                                      
 INPUT CARD>RSTRCT=.F.                                                                      
 INPUT CARD>SHIFT=.F.                                                                       
 INPUT CARD>SOSCF=.T.                                                                       
 INPUT CARD> $END                                                                           
 INPUT CARD> $STATPT                                                                        
 INPUT CARD>METHOD=QA                                                                       
 INPUT CARD>NSTEP=100                                                                       
 INPUT CARD>OPTTOL=0.001                                                                    
 INPUT CARD> $END                                                                           
 INPUT CARD> $GUESS                                                                         
 INPUT CARD>GUESS=HUCKEL                                                                    
 INPUT CARD> $END                                                                           
 INPUT CARD> $SYSTEM                                                                        
 INPUT CARD>MWORDS=10                                                                       
 INPUT CARD> $END                                                                           
 INPUT CARD> $DATA                                                                          
 INPUT CARD>C28 FULLERENE                                                                   
 INPUT CARD>C1                                                                              
 INPUT CARD>C	6.0	-2.02221	-0.57301	-1.06177                                                
 INPUT CARD>C	6.0	-0.87291	-1.74728	1.25966                                                 
 INPUT CARD>C	6.0	-1.75620	-0.64754	1.42413                                                 
 INPUT CARD>C	6.0	-2.30711	-0.08656	0.24165                                                 
     10000000 WORDS OF MEMORY AVAILABLE

     BASIS OPTIONS
     -------------
     GBASIS=PM3          IGAUSS=       0      POLAR=NONE    
     NDFUNC=       0     NFFUNC=       0     DIFFSP=       F
     NPFUNC=       0      DIFFS=       F     BASNAM=        


     RUN TITLE
     ---------
 C28 FULLERENE                                                                   

 THE POINT GROUP OF THE MOLECULE IS C1      
 THE ORDER OF THE PRINCIPAL AXIS IS     0

 ATOM      ATOMIC                      COORDINATES (BOHR)
           CHARGE         X                   Y                   Z
 C           6.0    -3.8214227896       -1.0828318882       -2.0064543620
 C           6.0    -1.6495607119       -3.3018804238        2.3804122377
 C           6.0    -3.3187367796       -1.2236731661        2.6912154709
 C           6.0    -4.3598057235       -0.1635746815        0.4566522849
 C           6.0    -3.1538392899        0.8900231457       -3.6985339086
 C           6.0    -3.6367776634        2.4206445040        0.4580506822
 C           6.0    -2.6905162723        2.9180581785       -2.0033363141
 C           6.0    -2.3009114654        0.6502358151        4.3201214778
 C           6.0    -0.6578892054        0.1865159550       -4.3888697092
 C           6.0    -0.0951288062       -2.3474554165       -3.7077746687
 C           6.0     2.1443098728       -3.0594663741       -2.4119328672
 C           6.0     1.1468180102        2.0516566076       -3.7066786277
 C           6.0     3.4273582294        1.4883292907       -2.4093817371
 C           6.0     3.8550788095       -1.0875373059       -1.7906287569
 C           6.0    -0.1663336814        3.8139961665       -2.1670243792
 C           6.0     2.5864868567       -3.1827898921        1.7175719502
 C           6.0     1.6284524727       -4.6511258818       -0.3139968701
 C           6.0     0.6764841091       -2.5682132064        3.4995268649
 C           6.0     4.1418825226       -1.1643924619        0.8763415295
 C           6.0    -1.0185812046       -4.3235796763       -0.0193885886
 C           6.0    -2.1345021949       -3.1637036596       -2.1664952559
 C           6.0     3.8646219257        1.3662151973        1.7249229843
 C           6.0     3.8241817896        3.1135125374       -0.3112567674
 C           6.0    -2.1908349266        2.7789743458        2.6900438408
 C           6.0     0.3181731646        3.6768587516        2.3744973954
 C           6.0     1.3956760255        4.2180195827       -0.0227711982
 C           6.0     1.9078484599        1.8318058862        3.5012087210
 C           6.0     0.2774873640       -0.0845841352        4.4339585713

          INTERNUCLEAR DISTANCES (ANGS.)
          ------------------------------

                1 C          2 C          3 C          4 C          5 C     

   1 C       0.0000000    2.8440882 *  2.5012027 *  1.4201075 *  1.4200260 *
   2 C       2.8440882 *  0.0000000    1.4200985 *  2.4189388 *  3.9877814  
   3 C       2.5012027 *  1.4200985 *  0.0000000    1.4200209 *  3.5625775  
   4 C       1.4201075 *  2.4189388 *  1.4200209 *  0.0000000    2.3564730 *
   5 C       1.4200260 *  3.9877814    3.5625775    2.3564730 *  0.0000000  
   6 C       2.2688209 *  3.3631617    2.2680185 *  1.4200263 *  2.3578529 *
   7 C       2.2001355 *  4.0642906    3.3295055    2.2658757 *  1.4200587 *
   8 C       3.5632550    2.3550440 *  1.4200142 *  2.3563382 *  4.2691132  
   9 C       2.2007089 *  4.0638435    4.0714455    3.2321353    1.4200551 *
  10 C       2.2686237 *  3.3632204    3.8379621    3.3593069    2.3568929 *
  11 C       3.3326179    3.2370249    4.0735355    4.0618788    3.5625930  
  12 C       3.2361773    4.5377610    4.4777906    3.8365708    2.3573710 *
  13 C       4.0756284    4.4797078    4.6998819    4.4771917    3.5629015  
  14 C       4.0638360    3.8379747    4.4767611    4.5333014    3.9838219  
  15 C       3.2346707    4.5372079    4.0618707    3.3589193    2.3558986 *
  16 C       4.0763654    2.2697719 *  3.3324635    4.0631909    4.6996587  
  17 C       3.5615742    2.3562162 *  3.5598102    3.9808500    4.2673392  
  18 C       3.8434939    1.4200469 *  2.2713324 *  3.3637358    4.6868155  
  19 C       4.4818344    3.3623332    4.0632448    4.5354065    4.6848677  
  20 C       2.4993080 *  1.4200349 *  2.4959844 *  2.8347328 *  3.5607413  
  21 C       1.4200638 *  2.4208705 *  2.8380622 *  2.4153711 *  2.3558132 *
  22 C       4.7033199    3.8388880    4.0730112    4.4774143    4.7004358  
  23 C       4.7015923    4.6844654    4.6988826    4.6827444    4.2699827  
  24 C       3.3312731    3.2347253    2.2005981 *  2.2668972 *  3.5620131  
  25 C       4.0641243    3.8369844    3.2337293    3.3597774    3.9847796  
  26 C       4.0733638    4.4776543    4.0716891    3.8362170    3.5610476  
  27 C       4.4794163    3.3579238    3.2322827    3.8355078    4.6838594  
  28 C       4.0742003    2.2626002 *  2.1989531 *  3.2331687    4.6992994  

                6 C          7 C          8 C          9 C         10 C     

   1 C       2.2688209 *  2.2001355 *  3.5632550    2.2007089 *  2.2686237 *
   2 C       3.3631617    4.0642906    2.3550440 *  4.0638435    3.3632204  
   3 C       2.2680185 *  3.3295055    1.4200142 *  4.0714455    3.8379621  
   4 C       1.4200263 *  2.2658757 *  2.3563382 *  3.2321353    3.3593069  
   5 C       2.3578529 *  1.4200587 *  4.2691132    1.4200551 *  2.3568929 *
   6 C       0.0000000    1.4200555 *  2.3567392 *  3.2343833    3.8390762  
   7 C       1.4200555 *  0.0000000    3.5608922    2.1999818 *  3.2347744  
   8 C       2.3567392 *  3.5608922    0.0000000    4.6963128    4.6825084  
   9 C       3.2343833    2.1999818 *  4.6963128    0.0000000    1.4200894 *
  10 C       3.8390762    3.2347744    4.6825084    1.4200894 *  0.0000000  
  11 C       4.4805220    4.0740908    4.6987376    2.4987591 *  1.4200549 *
  12 C       3.3620005    2.2685083 *  4.6819580    1.4200403 *  2.4189027 *
  13 C       4.0644601    3.3316062    4.6975231    2.4990581 *  2.8402074 *
  14 C       4.5364972    4.0624429    4.6812702    2.8369502 *  2.4173024 *
  15 C       2.4178496 *  1.4200298 *  3.9828758    2.2660181 *  3.3611074  
  16 C       4.4812875    4.7008179    3.5636861    4.0704302    3.2328890  
  17 C       4.6834023    4.6974700    4.2669997    3.5590750    2.3544141 *
  18 C       3.8431352    4.4813962    2.3604315 *  4.4775990    3.8375136  
  19 C       4.5378303    4.4789977    3.9833408    3.8373638    3.3620886  
  20 C       3.8367161    4.0706333    3.5582816    3.3284966    2.2675738 *
  21 C       3.3605887    3.2329049    3.9829166    2.2664178 *  1.4200151 *
  22 C       4.0642667    4.0742514    3.5601275    4.0723708    4.0641770  
  23 C       3.9860016    3.5633173    4.2674844    3.5609814    3.9853582  
  24 C       1.4200247 *  2.4987503 *  1.4200102 *  4.0709445    4.4778636  
  25 C       2.4187787 *  2.8395386 *  2.3550174 *  4.0604941    4.5354292  
  26 C       2.8392387 *  2.4994597 *  3.5598551    3.3272151    4.0614901  
  27 C       3.3614387    3.8388123    2.3535235 *  4.4759552    4.5351319  
  28 C       3.2364493    4.0737600    1.4200361 *  4.6971963    4.4760779  

               11 C         12 C         13 C         14 C         15 C     

   1 C       3.3326179    3.2361773    4.0756284    4.0638360    3.2346707  
   2 C       3.2370249    4.5377610    4.4797078    3.8379747    4.5372079  
   3 C       4.0735355    4.4777906    4.6998819    4.4767611    4.0618707  
   4 C       4.0618788    3.8365708    4.4771917    4.5333014    3.3589193  
   5 C       3.5625930    2.3573710 *  3.5629015    3.9838219    2.3558986 *
   6 C       4.4805220    3.3620005    4.0644601    4.5364972    2.4178496 *
   7 C       4.0740908    2.2685083 *  3.3316062    4.0624429    1.4200298 *
   8 C       4.6987376    4.6819580    4.6975231    4.6812702    3.9828758  
   9 C       2.4987591 *  1.4200403 *  2.4990581 *  2.8369502 *  2.2660181 *
  10 C       1.4200549 *  2.4189027 *  2.8402074 *  2.4173024 *  3.3611074  
  11 C       0.0000000    2.8396134 *  2.5005327 *  1.4200551 *  3.8394915  
  12 C       2.8396134 *  0.0000000    1.4200480 *  2.4169247 *  1.4200049 *
  13 C       2.5005327 *  1.4200480 *  0.0000000    1.4200192 *  2.2688122 *
  14 C       1.4200551 *  2.4169247 *  1.4200192 *  0.0000000    3.3609406  
  15 C       3.8394915    1.4200049 *  2.2688122 *  3.3609406    0.0000000  
  16 C       2.1987005 *  4.0610543    3.3282753    2.2641664 *  4.4784507  
  17 C       1.4200128 *  3.9836031    3.5624128    2.3569171 *  4.6829424  
  18 C       3.2336670    4.5365588    4.0625529    3.3585714    4.5383773  
  19 C       2.2695690 *  3.3600654    2.2664270 *  1.4200197 *  3.8381644  
  20 C       2.2026828 *  4.0622308    4.0735214    3.2345599    4.4764394  
  21 C       2.2686427 *  3.3609717    3.8391689    3.3604557    3.8365162  
  22 C       3.3325442    3.2344197    2.2009313 *  2.2686895 *  3.2356707  
  23 C       3.5632329    2.3561586 *  1.4200122 *  2.3569673 *  2.3581818 *
  24 C       4.7007812    3.8374282    4.0727401    4.4770838    2.8379390 *
  25 C       4.4784395    3.3596978    3.2337100    3.8363507    2.4179969 *
  26 C       4.0726145    2.2653628 *  2.1994208 *  3.2328753    1.4200234 *
  27 C       4.0628168    3.8372153    3.2345660    3.3600803    3.3618450  
  28 C       4.0716116    4.4773910    4.0725011    3.8360994    4.0636155  

               16 C         17 C         18 C         19 C         20 C     

   1 C       4.0763654    3.5615742    3.8434939    4.4818344    2.4993080 *
   2 C       2.2697719 *  2.3562162 *  1.4200469 *  3.3623332    1.4200349 *
   3 C       3.3324635    3.5598102    2.2713324 *  4.0632448    2.4959844 *
   4 C       4.0631909    3.9808500    3.3637358    4.5354065    2.8347328 *
   5 C       4.6996587    4.2673392    4.6868155    4.6848677    3.5607413  
   6 C       4.4812875    4.6834023    3.8431352    4.5378303    3.8367161  
   7 C       4.7008179    4.6974700    4.4813962    4.4789977    4.0706333  
   8 C       3.5636861    4.2669997    2.3604315 *  3.9833408    3.5582816  
   9 C       4.0704302    3.5590750    4.4775990    3.8373638    3.3284966  
  10 C       3.2328890    2.3544141 *  3.8375136    3.3620886    2.2675738 *
  11 C       2.1987005 *  1.4200128 *  3.2336670    2.2695690 *  2.2026828 *
  12 C       4.0610543    3.9836031    4.5365588    3.3600654    4.0622308  
  13 C       3.3282753    3.5624128    4.0625529    2.2664270 *  4.0735214  
  14 C       2.2641664 *  2.3569171 *  3.3585714    1.4200197 *  3.2345599  
  15 C       4.4784507    4.6829424    4.5383773    3.8381644    4.4764394  
  16 C       0.0000000    1.4200412 *  1.4200477 *  1.4200156 *  2.2019719 *
  17 C       1.4200412 *  0.0000000    2.3539605 *  2.3601273 *  1.4200171 *
  18 C       1.4200477 *  2.3539605 *  0.0000000    2.4169443 *  2.2660482 *
  19 C       1.4200156 *  2.3601273 *  2.4169443 *  0.0000000    3.2367823  
  20 C       2.2019719 *  1.4200171 *  2.2660482 *  3.2367823    0.0000000  
  21 C       3.2350904    2.3549281 *  3.3618402    3.8396944    1.4199965 *
  22 C       2.5004468 *  3.5642373    2.8395263 *  1.4200242 *  4.0737047  
  23 C       3.5613062    4.2699995    3.9850975    2.3553913 *  4.6988997  
  24 C       4.0753911    4.6979975    3.2392044    4.0627226    4.0702461  
  25 C       3.8390552    4.6825507    3.3632951    3.3594603    4.4753699  
  26 C       4.0722177    4.6974948    4.0638875    3.2327669    4.6971022  
  27 C       2.8392754 *  3.9833467    2.4178495 *  2.4167844 *  4.0594265  
  28 C       2.4994377 *  3.5585544    1.4200079 *  2.8377016 *  3.3250350  

               21 C         22 C         23 C         24 C         25 C     

   1 C       1.4200638 *  4.7033199    4.7015923    3.3312731    4.0641243  
   2 C       2.4208705 *  3.8388880    4.6844654    3.2347253    3.8369844  
   3 C       2.8380622 *  4.0730112    4.6988826    2.2005981 *  3.2337293  
   4 C       2.4153711 *  4.4774143    4.6827444    2.2668972 *  3.3597774  
   5 C       2.3558132 *  4.7004358    4.2699827    3.5620131    3.9847796  
   6 C       3.3605887    4.0642667    3.9860016    1.4200247 *  2.4187787 *
   7 C       3.2329049    4.0742514    3.5633173    2.4987503 *  2.8395386 *
   8 C       3.9829166    3.5601275    4.2674844    1.4200102 *  2.3550174 *
   9 C       2.2664178 *  4.0723708    3.5609814    4.0709445    4.0604941  
  10 C       1.4200151 *  4.0641770    3.9853582    4.4778636    4.5354292  
  11 C       2.2686427 *  3.3325442    3.5632329    4.7007812    4.4784395  
  12 C       3.3609717    3.2344197    2.3561586 *  3.8374282    3.3596978  
  13 C       3.8391689    2.2009313 *  1.4200122 *  4.0727401    3.2337100  
  14 C       3.3604557    2.2686895 *  2.3569673 *  4.4770838    3.8363507  
  15 C       3.8365162    3.2356707    2.3581818 *  2.8379390 *  2.4179969 *
  16 C       3.2350904    2.5004468 *  3.5613062    4.0753911    3.8390552  
  17 C       2.3549281 *  3.5642373    4.2699995    4.6979975    4.6825507  
  18 C       3.3618402    2.8395263 *  3.9850975    3.2392044    3.3632951  
  19 C       3.8396944    1.4200242 *  2.3553913 *  4.0627226    3.3594603  
  20 C       1.4199965 *  4.0737047    4.6988997    4.0702461    4.4753699  
  21 C       0.0000000    4.4793781    4.6840787    4.0613989    4.5345743  
  22 C       4.4793781    0.0000000    1.4200017 *  3.3298625    2.2661097 *
  23 C       4.6840787    1.4200017 *  0.0000000    3.5616478    2.3560413 *
  24 C       4.0613989    3.3298625    3.5616478    0.0000000    1.4200191 *
  25 C       4.5345743    2.2661097 *  2.3560413 *  1.4200191 *  0.0000000  
  26 C       4.4760873    2.1999342 *  1.4200104 *  2.4985505 *  1.4200069 *
  27 C       4.5342364    1.4200231 *  2.3576612 *  2.2670982 *  1.4200071 *
  28 C       4.0600230    2.4995561 *  3.5625827    2.2031715 *  2.2693924 *

               26 C         27 C         28 C     

   1 C       4.0733638    4.4794163    4.0742003  
   2 C       4.4776543    3.3579238    2.2626002 *
   3 C       4.0716891    3.2322827    2.1989531 *
   4 C       3.8362170    3.8355078    3.2331687  
   5 C       3.5610476    4.6838594    4.6992994  
   6 C       2.8392387 *  3.3614387    3.2364493  
   7 C       2.4994597 *  3.8388123    4.0737600  
   8 C       3.5598551    2.3535235 *  1.4200361 *
   9 C       3.3272151    4.4759552    4.6971963  
  10 C       4.0614901    4.5351319    4.4760779  
  11 C       4.0726145    4.0628168    4.0716116  
  12 C       2.2653628 *  3.8372153    4.4773910  
  13 C       2.1994208 *  3.2345660    4.0725011  
  14 C       3.2328753    3.3600803    3.8360994  
  15 C       1.4200234 *  3.3618450    4.0636155  
  16 C       4.0722177    2.8392754 *  2.4994377 *
  17 C       4.6974948    3.9833467    3.5585544  
  18 C       4.0638875    2.4178495 *  1.4200079 *
  19 C       3.2327669    2.4167844 *  2.8377016 *
  20 C       4.6971022    4.0594265    3.3250350  
  21 C       4.4760873    4.5342364    4.0600230  
  22 C       2.1999342 *  1.4200231 *  2.4995561 *
  23 C       1.4200104 *  2.3576612 *  3.5625827  
  24 C       2.4985505 *  2.2670982 *  2.2031715 *
  25 C       1.4200069 *  1.4200071 *  2.2693924 *
  26 C       0.0000000    2.2683608 *  3.3310934  
  27 C       2.2683608 *  0.0000000    1.4199957 *
  28 C       3.3310934    1.4199957 *  0.0000000  

  * ... LESS THAN  3.000


 TOTAL NUMBER OF BASIS SET SHELLS             =   28
 NUMBER OF CARTESIAN GAUSSIAN BASIS FUNCTIONS =  112
 NUMBER OF ELECTRONS                          =  112
 CHARGE OF MOLECULE                           =    0
 SPIN MULTIPLICITY                            =    1
 NUMBER OF OCCUPIED ORBITALS (ALPHA)          =   56
 NUMBER OF OCCUPIED ORBITALS (BETA )          =   56
 TOTAL NUMBER OF ATOMS                        =   28
 THE NUCLEAR REPULSION ENERGY IS     2506.3072152164

 THE PARAMETERS USED IN THIS CALCULATION ARE DESCRIBED IN:

  C: (PM3): J. J. P. STEWART, J. COMP. CHEM. 10, 209 (1989).                    

 THERE ARE   28 HEAVY AND    0 LIGHT ATOMS,
 YIELDING A TOTAL OF     37800 MOPAC 2E- INTEGRALS.

     $CONTRL OPTIONS
     ---------------
 SCFTYP=RHF          RUNTYP=OPTIMIZE     EXETYP=RUN     
 MPLEVL=       0     CITYP =NONE         CCTYP =NONE         VBTYP =NONE    
 DFTTYP=NONE         TDDFT =NONE    
 MULT  =       1     ICHARG=       0     NZVAR =       0     COORD =UNIQUE  
 PP    =NONE         RELWFN=NONE         LOCAL =NONE         NUMGRD=       F
 ISPHER=      -1     NOSYM =       0     MAXIT =     200     UNITS =ANGS    
 PLTORB=       F     MOLPLT=       F     AIMPAC=       F     FRIEND=        
 NPRINT=       7     IREST =       0     GEOM  =INPUT   
 NORMF =       0     NORMP =       0     ITOL  =      20     ICUT  =       9
 INTTYP=BEST         GRDTYP=BEST         QMTTOL= 1.0E-06

     $SYSTEM OPTIONS
     ---------------
  REPLICATED MEMORY=    10000000 WORDS (ON EVERY NODE).
 DISTRIBUTED MEMDDI=           0 MILLION WORDS IN AGGREGATE,
 MEMDDI DISTRIBUTED OVER   2 PROCESSORS IS           0 WORDS/PROCESSOR.
 TOTAL MEMORY REQUESTED ON EACH PROCESSOR=    10000000 WORDS.
 TIMLIM=      525600.00 MINUTES, OR     365.0 DAYS.
 PARALL= T  BALTYP=  DLB     KDIAG=    0  COREFL= F
 MXSEQ2=     300 MXSEQ3=     150  mem10=         0  mem22=         0

          ----------------
          PROPERTIES INPUT
          ----------------

     MOMENTS            FIELD           POTENTIAL          DENSITY
 IEMOM =       1   IEFLD =       0   IEPOT =       0   IEDEN =       0
 WHERE =COMASS     WHERE =NUCLEI     WHERE =NUCLEI     WHERE =NUCLEI  
 OUTPUT=BOTH       OUTPUT=BOTH       OUTPUT=BOTH       OUTPUT=BOTH    
 IEMINT=       0   IEFINT=       0                     IEDINT=       0
                                                       MORB  =       0
          EXTRAPOLATION IN EFFECT
          SOSCF IN EFFECT
 ORBITAL PRINTING OPTION: NPREO=     1   112     2     1

     -------------------------------
     INTEGRAL TRANSFORMATION OPTIONS
     -------------------------------
     NWORD  =            0
     CUTTRF = 1.0E-09     MPTRAN =       0
     DIRTRF =       T     AOINTS =DUP     

          ----------------------
          INTEGRAL INPUT OPTIONS
          ----------------------
 NOPK  =       1 NORDER=       0 SCHWRZ=       T

     ------------------------------------------
     THE POINT GROUP IS C1 , NAXIS= 0, ORDER= 1
     ------------------------------------------

     DIMENSIONS OF THE SYMMETRY SUBSPACES ARE
 A   =  112

 ..... DONE SETTING UP THE RUN .....
 CPU     0: STEP CPU TIME=     0.02 TOTAL CPU TIME=          0.0 (      0.0 MIN)
 TOTAL WALL CLOCK TIME=          0.0 SECONDS, CPU UTILIZATION IS    42.23%


          -----------------------------
          STATIONARY POINT LOCATION RUN
          -----------------------------

 OBTAINING INITIAL HESSIAN, HESS=GUESS   
 CARTESIAN COORDINATE OPTIMIZATION USING BADGER'S RULE FORCE CONSTANT GUESS

          PARAMETERS CONTROLLING GEOMETRY SEARCH ARE
          METHOD =QA                  UPHESS =BFGS    
          NNEG   =         0          NFRZ   =         0
          NSTEP  =       100          IFOLOW =         1
          HESS   =GUESS               RESTAR =         F
          IHREP  =         0          HSSEND =         F
          NPRT   =         0          NPUN   =         0
          OPTTOL = 1.000E-03          RMIN   = 1.500E-03
          RMAX   = 1.000E-01          RLIM   = 7.000E-02
          DXMAX  = 3.000E-01          PURIFY =         F
          MOVIE  =         F          TRUPD  =         T
          TRMAX  = 5.000E-01          TRMIN  = 5.000E-02
          ITBMAT =         5          STPT   =         F
          STSTEP = 1.000E-02          PROJCT=          T

 BEGINNING GEOMETRY SEARCH POINT NSERCH=   0 ...

 COORDINATES OF ALL ATOMS ARE (ANGS)
   ATOM   CHARGE       X              Y              Z
 ------------------------------------------------------------
 C           6.0  -2.0222100000  -0.5730100000  -1.0617700000
 C           6.0  -0.8729100000  -1.7472800000   1.2596600000
 C           6.0  -1.7562000000  -0.6475400000   1.4241300000
 C           6.0  -2.3071100000  -0.0865600000   0.2416500000
 C           6.0  -1.6689400000   0.4709800000  -1.9571800000
 C           6.0  -1.9245000000   1.2809500000   0.2423900000
 C           6.0  -1.4237600000   1.5441700000  -1.0601200000
 C           6.0  -1.2175900000   0.3440900000   2.2861100000
 C           6.0  -0.3481400000   0.0987000000  -2.3224900000
 C           6.0  -0.0503400000  -1.2422200000  -1.9620700000
 C           6.0   1.1347200000  -1.6190000000  -1.2763400000
 C           6.0   0.6068700000   1.0856900000  -1.9614900000
 C           6.0   1.8136800000   0.7875900000  -1.2749900000
 C           6.0   2.0400200000  -0.5755000000  -0.9475600000
 C           6.0  -0.0880200000   2.0182800000  -1.1467400000
 C           6.0   1.3687100000  -1.6842600000   0.9089000000
 C           6.0   0.8617400000  -2.4612700000  -0.1661600000
 C           6.0   0.3579800000  -1.3590400000   1.8518700000
 C           6.0   2.1917900000  -0.6161700000   0.4637400000
 C           6.0  -0.5390100000  -2.2879400000  -0.0102600000
 C           6.0  -1.1295300000  -1.6741600000  -1.1464600000
 C           6.0   2.0450700000   0.7229700000   0.9127900000
 C           6.0   2.0236700000   1.6476000000  -0.1647100000
 C           6.0  -1.1593400000   1.4705700000   1.4235100000
 C           6.0   0.1683700000   1.9457100000   1.2565300000
 C           6.0   0.7385600000   2.2320800000  -0.0120500000
 C           6.0   1.0095900000   0.9693500000   1.8527600000
 C           6.0   0.1468400000  -0.0447600000   2.3463500000

          ********************
          1 ELECTRON INTEGRALS
          ********************

          **************************
          1 AND 2 ELECTRON INTEGRALS
          **************************

 MOPAC ONE- AND TWO-ELECTRON INTEGRALS REQUIRE     50456 WORDS.
 ...... END OF ONE- AND TWO-ELECTRON INTEGRALS......
 CPU     0: STEP CPU TIME=     0.02 TOTAL CPU TIME=          0.0 (      0.0 MIN)
 TOTAL WALL CLOCK TIME=          0.0 SECONDS, CPU UTILIZATION IS    72.67%
 ...... END OF ONE-ELECTRON INTEGRALS ......
 CPU     0: STEP CPU TIME=     0.00 TOTAL CPU TIME=          0.0 (      0.0 MIN)
 TOTAL WALL CLOCK TIME=          0.0 SECONDS, CPU UTILIZATION IS    72.67%

          -------------
          GUESS OPTIONS
          -------------
          GUESS =HUCKEL            NORB  =       0          NORDER=       0
          MIX   =       F          PRTMO =       F          PUNMO =       F
          TOLZ  = 1.0E-08          TOLE  = 1.0E-05
          SYMDEN=       F          PURIFY=       F

 INITIAL GUESS ORBITALS GENERATED BY HUCKEL   ROUTINE.

 SYMMETRIES FOR INITIAL GUESS ORBITALS FOLLOW.   BOTH SET(S).
    56 ORBITALS ARE OCCUPIED (    0 CORE ORBITALS).
     1=A        2=A        3=A        4=A        5=A        6=A        7=A   
     8=A        9=A       10=A       11=A       12=A       13=A       14=A   
    15=A       16=A       17=A       18=A       19=A       20=A       21=A   
    22=A       23=A       24=A       25=A       26=A       27=A       28=A   
    29=A       30=A       31=A       32=A       33=A       34=A       35=A   
    36=A       37=A       38=A       39=A       40=A       41=A       42=A   
    43=A       44=A       45=A       46=A       47=A       48=A       49=A   
    50=A       51=A       52=A       53=A       54=A       55=A       56=A   
    57=A       58=A       59=A       60=A       61=A       62=A       63=A   
    64=A       65=A       66=A   
 ...... END OF INITIAL ORBITAL SELECTION ......
 CPU     0: STEP CPU TIME=     0.00 TOTAL CPU TIME=          0.0 (      0.0 MIN)
 TOTAL WALL CLOCK TIME=          0.1 SECONDS, CPU UTILIZATION IS    60.10%

          --------------------------
               R-PM3 SCF CALCULATION
          --------------------------

     NUCLEAR ENERGY =       991.2265570884
     MAXIT =  200     NPUNCH=    2
     EXTRAP=T  DAMP=F  SHIFT=F  RSTRCT=F  DIIS=F  DEM=F  SOSCF=T
     DENSITY MATRIX CONV=  2.00E-05
     SOSCF WILL OPTIMIZE    3136 ORBITAL ROTATIONS, SOGTOL=   0.250
     MEMORY REQUIRED FOR RHF ITERS=    140168 WORDS.

                                                                                   NONZERO     BLOCKS
 ITER EX DEM     TOTAL ENERGY        E CHANGE  DENSITY CHANGE     ORB. GRAD      INTEGRALS    SKIPPED
   1  0  0     -119.6205921434  -119.6205921434   0.167981214   0.000000000              0          0
          ---------------START SECOND ORDER SCF---------------
   2  1  0     -120.5061105797    -0.8855184362   0.060909410   0.019027023              0          0
   3  2  0     -120.5790481452    -0.0729375656   0.053983131   0.010583248              0          0
   4  3  0     -120.5890204101    -0.0099722649   0.029671278   0.008261054              0          0
   5  4  0     -120.5942626605    -0.0052422504   0.021595903   0.004764853              0          0
   6  5  0     -120.5971975052    -0.0029348447   0.120681731   0.005389546              0          0
   7  6  0     -120.5993809343    -0.0021834291   0.057111286   0.008349886              0          0
   8  7  0     -120.6041060443    -0.0047251099   0.022162916   0.004230982              0          0
   9  8  0     -120.6059382174    -0.0018321732   0.053601287   0.003206790              0          0
  10  9  0     -120.6079154984    -0.0019772809   0.010236563   0.001629907              0          0
  11 10  0     -120.6082482419    -0.0003327435   0.004516943   0.001358298              0          0
  12 11  0     -120.6084047997    -0.0001565579   0.011812692   0.001067230              0          0
  13 12  0     -120.6086984382    -0.0002936384   0.030711216   0.001148317              0          0
  14 13  0     -120.6092688957    -0.0005704575   0.024288053   0.001902263              0          0
  15 14  0     -120.6096860790    -0.0004171833   0.017522001   0.001982867              0          0
  16 15  0     -120.6101533070    -0.0004672280   0.007591828   0.001197607              0          0
  17 16  0     -120.6103693113    -0.0002160043   0.006540154   0.000480558              0          0
  18 17  0     -120.6104205809    -0.0000512696   0.005515573   0.000519490              0          0
  19 18  0     -120.6104771676    -0.0000565867   0.004218850   0.000521204              0          0
  20 19  0     -120.6105051114    -0.0000279438   0.008657390   0.000507019              0          0
  21 20  0     -120.6105510799    -0.0000459684   0.013067352   0.000445427              0          0
  22 21  0     -120.6106142289    -0.0000631491   0.025428218   0.000421122              0          0
  23 22  0     -120.6107241176    -0.0001098886   0.026525080   0.000637657              0          0
  24 23  0     -120.6108375248    -0.0001134072   0.012390166   0.000667079              0          0
  25 24  0     -120.6109722225    -0.0001346977   0.007376717   0.000450600              0          0
  26 25  0     -120.6110624989    -0.0000902764   0.006574925   0.000360845              0          0
  27 26  0     -120.6110900312    -0.0000275323   0.004293035   0.000314052              0          0
  28 27  0     -120.6111153132    -0.0000252820   0.007229686   0.000224320              0          0
  29 28  0     -120.6111319344    -0.0000166211   0.003845740   0.000188703              0          0
  30 29  0     -120.6111481806    -0.0000162462   0.004339265   0.000148195              0          0
  31 30  0     -120.6111621471    -0.0000139665   0.003187065   0.000152525              0          0
  32 31  0     -120.6111709926    -0.0000088455   0.003122580   0.000153772              0          0
  33 32  0     -120.6111792574    -0.0000082648   0.002102892   0.000136494              0          0
  34 33  0     -120.6111845059    -0.0000052484   0.001677027   0.000103616              0          0
  35 34  0     -120.6111879687    -0.0000034628   0.001342713   0.000095604              0          0
  36 35  0     -120.6111903095    -0.0000023408   0.001418259   0.000089534              0          0
  37 36  0     -120.6111923465    -0.0000020370   0.001405948   0.000068749              0          0
  38 37  0     -120.6111940102    -0.0000016637   0.001074982   0.000063026              0          0
  39 38  0     -120.6111950798    -0.0000010696   0.000610117   0.000045302              0          0
  40 39  0     -120.6111955898    -0.0000005100   0.000298775   0.000045464              0          0
  41 40  0     -120.6111958066    -0.0000002167   0.000206260   0.000016909              0          0
  42 41  0     -120.6111959137    -0.0000001072   0.000184694   0.000014019              0          0
  43 42  0     -120.6111959785    -0.0000000648   0.000193618   0.000014273              0          0
  44 43  0     -120.6111960277    -0.0000000492   0.000219257   0.000017085              0          0
  45 44  0     -120.6111960757    -0.0000000480   0.000267368   0.000014902              0          0
  46 45  0     -120.6111961215    -0.0000000457   0.000291298   0.000007900              0          0
  47 46  0     -120.6111961570    -0.0000000356   0.000234833   0.000009913              0          0
  48 47  0     -120.6111961809    -0.0000000239   0.000171646   0.000010087              0          0
  49 48  0     -120.6111961992    -0.0000000182   0.000190510   0.000008507              0          0
  50 49  0     -120.6111962156    -0.0000000165   0.000175173   0.000005565              0          0
  51 50  0     -120.6111962281    -0.0000000125   0.000095467   0.000004816              0          0
  52 51  0     -120.6111962341    -0.0000000060   0.000025606   0.000003027              0          0
  53 52  0     -120.6111962358    -0.0000000018   0.000014282   0.000001223              0          0

          -----------------
          DENSITY CONVERGED
          -----------------
     TIME TO FORM FOCK OPERATORS=       0.0 SECONDS (       0.0 SEC/ITER)
     FOCK TIME ON FIRST ITERATION=       0.0, LAST ITERATION=       0.0
     TIME TO SOLVE SCF EQUATIONS=       0.3 SECONDS (       0.0 SEC/ITER)

 FINAL R-PM3 ENERGY IS     -120.6111962358 AFTER  53 ITERATIONS

 HEAT OF FORMATION IS       920.07535 KCAL/MOL
 

          ------------
          EIGENVECTORS
          ------------

                      1          2          3          4          5
                   -1.9002    -1.6163    -1.6103    -1.6096    -1.2732
                     A          A          A          A          A   
    1  C  1  S    0.183984  -0.005611  -0.140692   0.275563  -0.148751
    2  C  1  X    0.046410  -0.028515  -0.043316   0.051668   0.011418
    3  C  1  Y    0.019828   0.007985   0.030991   0.064868  -0.043396
    4  C  1  Z    0.015762   0.053681  -0.009986   0.000046  -0.050265
    5  C  2  S    0.185106   0.181298  -0.210746  -0.095169   0.288956
    6  C  2  X    0.025692  -0.003458  -0.037675  -0.060095   0.078241
    7  C  2  Y    0.040437   0.075406  -0.007732  -0.002609   0.024981
    8  C  2  Z   -0.022959   0.025840   0.054750  -0.006524   0.010099
    9  C  3  S    0.188224   0.299100  -0.089836   0.035904   0.012947
   10  C  3  X    0.042846   0.065494  -0.021999  -0.033521   0.088135
   11  C  3  Y    0.022406   0.056652   0.038163   0.031563  -0.104475
   12  C  3  Z   -0.022579   0.001326   0.028073  -0.042787   0.058582
   13  C  4  S    0.184029   0.182408  -0.069479   0.214949  -0.256899
   14  C  4  X    0.051964   0.048078  -0.017754   0.043431  -0.034490
   15  C  4  Y    0.010128   0.017354   0.039816   0.034599  -0.069118
   16  C  4  Z   -0.004419   0.060839   0.014271  -0.054843   0.019298
   17  C  5  S    0.170263  -0.089606  -0.038422   0.312347   0.007614
   18  C  5  X    0.040478  -0.050298   0.001820   0.059399   0.074090
   19  C  5  Y   -0.011844   0.010211   0.045091  -0.012768   0.033910
   20  C  5  Z    0.046190   0.005860  -0.007542   0.083225  -0.052359
   21  C  6  S    0.181696   0.168375   0.059705   0.225822  -0.262965
   22  C  6  X    0.038058   0.024508   0.036678   0.025678  -0.001125
   23  C  6  Y   -0.036604  -0.045293   0.025509  -0.047859   0.075294
   24  C  6  Z   -0.004577   0.060111   0.008069  -0.054969  -0.023972
   25  C  7  S    0.181379  -0.025703   0.081630   0.294716   0.009971
   26  C  7  X    0.027975  -0.036971   0.043618   0.018674   0.106215
   27  C  7  Y   -0.041408   0.005880   0.020314  -0.080042   0.039922
   28  C  7  Z    0.015082   0.050401   0.019111   0.002319  -0.083169
   29  C  8  S    0.175378   0.331504   0.034261  -0.019839  -0.008023
   30  C  8  X    0.028578   0.043929   0.020693  -0.039028   0.055155
   31  C  8  Y   -0.009151  -0.019027   0.040720   0.015957  -0.077493
   32  C  8  Z   -0.055161  -0.093696  -0.007278  -0.016167   0.043327
   33  C  9  S    0.184675  -0.200544  -0.040424   0.235752   0.148767
   34  C  9  X   -0.003538  -0.024227   0.021342  -0.055428   0.024968
   35  C  9  Y    0.000849   0.000732   0.061081   0.022512   0.075797
   36  C  9  Z    0.052430  -0.043891  -0.009643   0.058891   0.020570
   37  C 10  S    0.183746  -0.194695  -0.197766   0.092471  -0.025052
   38  C 10  X   -0.006487  -0.016061   0.017382  -0.062231  -0.023067
   39  C 10  Y    0.023966  -0.033916   0.021780   0.053421   0.029031
   40  C 10  Z    0.047505  -0.033940  -0.068871  -0.006847  -0.022906
   41  C 11  S    0.184421  -0.205285  -0.199840  -0.121400  -0.170921
   42  C 11  X   -0.025870   0.014358   0.059786  -0.028642  -0.044492
   43  C 11  Y    0.027939  -0.045979   0.017186  -0.004449  -0.036610
   44  C 11  Z    0.036444  -0.018309  -0.046809  -0.065547  -0.038196
   45  C 12  S    0.182016  -0.223729   0.140056   0.126619   0.277513
   46  C 12  X   -0.018037   0.003397   0.013252  -0.079310  -0.058334
   47  C 12  Y   -0.017596   0.032026   0.035101  -0.006849   0.034193
   48  C 12  Z    0.046341  -0.044405   0.061603   0.006062   0.050698
   49  C 13  S    0.182077  -0.237109   0.182568  -0.080872   0.011322
   50  C 13  X   -0.036561   0.043082  -0.029934  -0.028801  -0.083796
   51  C 13  Y   -0.011075   0.024401   0.044926   0.028516   0.098884
   52  C 13  Z    0.035553  -0.026705   0.054662  -0.054405  -0.056165
   53  C 14  S    0.183439  -0.230872   0.000663  -0.186296  -0.264034
   54  C 14  X   -0.042584   0.049684   0.024472   0.018080   0.015869
   55  C 14  Y    0.011512  -0.021098   0.078775   0.004245   0.023607
   56  C 14  Z    0.028601  -0.013099   0.006249  -0.065535  -0.071398
   57  C 15  S    0.180409  -0.122895   0.209197   0.162815   0.273142
   58  C 15  X    0.006349  -0.034654   0.042764  -0.052421   0.052590
   59  C 15  Y   -0.048772   0.044160  -0.030039  -0.054503  -0.061640
   60  C 15  Z    0.018288   0.023671   0.044297  -0.014299  -0.027750
   61  C 16  S    0.181088  -0.033407  -0.166070  -0.254867   0.010609
   62  C 16  X   -0.033060  -0.030126   0.059157   0.025998  -0.107487
   63  C 16  Y    0.028585  -0.001999   0.023188  -0.042729  -0.039427
   64  C 16  Z   -0.028455   0.055873   0.041168   0.033633   0.084075
   65  C 17  S    0.170658  -0.095452  -0.258285  -0.176126  -0.008287
   66  C 17  X   -0.020280  -0.009921   0.052226  -0.008677  -0.071403
   67  C 17  Y    0.058685  -0.038843  -0.070540  -0.061791  -0.031873
   68  C 17  Z    0.003446   0.034129  -0.000842  -0.027799   0.064330
   69  C 18  S    0.181553   0.163632  -0.132458  -0.197024   0.282242
   70  C 18  X   -0.017290  -0.061115   0.022961  -0.015303  -0.078641
   71  C 18  Y    0.026009   0.051836   0.033292  -0.018693   0.003288
   72  C 18  Z   -0.043084   0.001691   0.058127   0.049047  -0.037424
   73  C 19  S    0.180157  -0.129215   0.018175  -0.261672  -0.249855
   74  C 19  X   -0.047045   0.015391   0.016717   0.060317   0.018299
   75  C 19  Y    0.012811  -0.011473   0.079310  -0.007817  -0.022310
   76  C 19  Z   -0.020223   0.059127   0.003330   0.017560   0.075998
   77  C 20  S    0.184720  -0.008435  -0.300049  -0.076550   0.147852
   78  C 20  X    0.022068  -0.030242  -0.039112  -0.057693   0.006347
   79  C 20  Y    0.047940   0.007913  -0.060117  -0.000593   0.021939
   80  C 20  Z   -0.000765   0.053627   0.010956  -0.034454   0.083118
   81  C 21  S    0.184322  -0.082019  -0.256314   0.117654  -0.017865
   82  C 21  X    0.030861  -0.043251  -0.055174  -0.028410   0.015465
   83  C 21  Y    0.038680  -0.017163  -0.020649   0.072286  -0.027242
   84  C 21  Z    0.019161   0.031624  -0.035998  -0.022576   0.019948
   85  C 22  S    0.179223  -0.066205   0.209898  -0.214474  -0.141121
   86  C 22  X   -0.042585  -0.016478  -0.051082   0.034905  -0.010793
   87  C 22  Y   -0.007607   0.008556   0.046403   0.033240   0.049353
   88  C 22  Z   -0.028013   0.062062  -0.036930   0.025219   0.041544
   89  C 23  S    0.167670  -0.140832   0.269225  -0.120054   0.008292
   90  C 23  X   -0.047409   0.026565  -0.082469   0.008274  -0.056432
   91  C 23  Y   -0.038575   0.043333  -0.036436   0.049099   0.061677
   92  C 23  Z    0.003757   0.031768   0.013456  -0.026377  -0.044075
   93  C 24  S    0.184223   0.271579   0.134797   0.058480  -0.172510
   94  C 24  X    0.023792   0.016601   0.050660  -0.035227   0.041777
   95  C 24  Y   -0.041598  -0.084113   0.005307  -0.006816   0.032187
   96  C 24  Z   -0.022197   0.005398  -0.018560  -0.046632   0.042627
   97  C 25  S    0.180369   0.134756   0.253798  -0.045465  -0.027521
   98  C 25  X    0.001058  -0.046265   0.029897  -0.043257   0.031733
   99  C 25  Y   -0.047203  -0.055852  -0.043875   0.025614   0.018004
  100  C 25  Z   -0.022138   0.034047  -0.045902  -0.016726  -0.023612
  101  C 26  S    0.180563  -0.063731   0.303110  -0.014292   0.143428
  102  C 26  X   -0.005170  -0.030035   0.008250  -0.047286  -0.013736
  103  C 26  Y   -0.051344   0.022776  -0.073895   0.015524  -0.017942
  104  C 26  Z   -0.001021   0.052736   0.005493  -0.034245  -0.077435
  105  C 27  S    0.179373   0.132474   0.199401  -0.161006  -0.016012
  106  C 27  X   -0.027427  -0.076447  -0.014866  -0.005864  -0.020800
  107  C 27  Y   -0.013922  -0.019586   0.030564   0.031792  -0.017000
  108  C 27  Z   -0.042215   0.012785  -0.065672   0.035496   0.023229
  109  C 28  S    0.183477   0.268224   0.041179  -0.143988   0.146724
  110  C 28  X   -0.016409  -0.067488   0.013955  -0.023820  -0.019070
  111  C 28  Y    0.004123   0.012353   0.062370   0.013784  -0.079474
  112  C 28  Z   -0.049840  -0.052099  -0.008987   0.037267  -0.022790

                      6          7          8          9         10
                   -1.2720    -1.2366    -1.2339    -1.2315    -0.9762
                     A          A          A          A          A   
    1  C  1  S    0.076128  -0.207687  -0.158130   0.188483   0.073650
    2  C  1  X    0.071370   0.001326  -0.033749   0.034563   0.015120
    3  C  1  Y   -0.081004  -0.008450   0.077857   0.070102  -0.027719
    4  C  1  Z   -0.068761  -0.068048  -0.042230  -0.070403  -0.005478
    5  C  2  S   -0.141717  -0.143095  -0.153144  -0.040480   0.017420
    6  C  2  X   -0.011640  -0.025068   0.094241   0.037401   0.113526
    7  C  2  Y   -0.042973   0.049638  -0.076586   0.022464  -0.134663
    8  C  2  Z   -0.031802   0.095606   0.002887   0.066918  -0.119299
    9  C  3  S   -0.192251   0.059393  -0.286724  -0.108537  -0.332641
   10  C  3  X   -0.013744   0.042438  -0.030971   0.020637  -0.013361
   11  C  3  Y   -0.012130   0.085694   0.021830  -0.039274  -0.013662
   12  C  3  Z    0.021334   0.100562   0.034303   0.029355  -0.017057
   13  C  4  S   -0.178313  -0.158220  -0.154074  -0.047262  -0.103810
   14  C  4  X   -0.028263  -0.018518  -0.032561  -0.017919  -0.017177
   15  C  4  Y   -0.040450   0.026275   0.101189  -0.011504   0.050020
   16  C  4  Z   -0.035826   0.092344  -0.038538  -0.098970  -0.109501
   17  C  5  S    0.003764  -0.028226   0.079703   0.310540  -0.013393
   18  C  5  X    0.016982   0.068492   0.022811   0.054365  -0.036552
   19  C  5  Y   -0.087494   0.004279   0.088635  -0.037928  -0.009497
   20  C  5  Z   -0.034391  -0.066420   0.028707   0.049490   0.026598
   21  C  6  S   -0.167031  -0.071641   0.176291  -0.121110   0.112855
   22  C  6  X    0.007837   0.010313   0.072991  -0.043658   0.044736
   23  C  6  Y    0.052365   0.022996   0.065393  -0.010823   0.048017
   24  C  6  Z    0.030207   0.087866  -0.052323  -0.093905   0.012298
   25  C  7  S   -0.164340  -0.090776   0.296660   0.082471   0.005831
   26  C  7  X   -0.009380   0.034852   0.047854  -0.034528  -0.052020
   27  C  7  Y    0.017591   0.019670   0.002166  -0.088818  -0.017383
   28  C  7  Z   -0.018544  -0.045932   0.034714  -0.087224   0.047634
   29  C  8  S   -0.007347   0.310499  -0.092061  -0.057011  -0.036880
   30  C  8  X    0.071983   0.059251   0.026365   0.064684   0.089952
   31  C  8  Y    0.071163   0.005071   0.084351  -0.038493   0.174316
   32  C  8  Z    0.030180  -0.051484   0.026580   0.055941   0.028955
   33  C  9  S    0.092745   0.253097  -0.020026   0.192553  -0.068724
   34  C  9  X   -0.031708   0.084634  -0.026704  -0.099999   0.023071
   35  C  9  Y   -0.114605  -0.009322   0.071022   0.013663   0.035110
   36  C  9  Z    0.013267   0.025801   0.000712   0.030284  -0.001709
   37  C 10  S    0.304886   0.210975  -0.087341  -0.047750  -0.145791
   38  C 10  X   -0.066655   0.074515   0.048440  -0.078293  -0.066006
   39  C 10  Y   -0.012238   0.076610  -0.028708   0.086744  -0.006650
   40  C 10  Z    0.065775  -0.009172  -0.001947  -0.063046  -0.003703
   41  C 11  S    0.072395   0.214550   0.117098  -0.195562  -0.248593
   42  C 11  X   -0.116542   0.009508   0.016974   0.054937   0.004325
   43  C 11  Y   -0.029740   0.090070  -0.049585   0.023264   0.012403
   44  C 11  Z   -0.045636  -0.039608   0.089706  -0.020482  -0.019595
   45  C 12  S   -0.145047   0.212123  -0.043287  -0.057804   0.113365
   46  C 12  X   -0.012069  -0.017595  -0.101519  -0.075312   0.114903
   47  C 12  Y   -0.025151  -0.096127   0.036830  -0.041575  -0.040803
   48  C 12  Z   -0.044583  -0.017134  -0.017477  -0.059162   0.023685
   49  C 13  S   -0.187154   0.105569  -0.271129  -0.106264   0.336965
   50  C 13  X    0.017038  -0.048936  -0.001013   0.044609   0.000385
   51  C 13  Y    0.022435  -0.093166  -0.001275  -0.040100  -0.058626
   52  C 13  Z   -0.015075  -0.077677  -0.060451   0.013432  -0.002531
   53  C 14  S   -0.183937   0.203463  -0.065404  -0.016465   0.080994
   54  C 14  X   -0.001343  -0.068422  -0.013009   0.038139   0.038622
   55  C 14  Y   -0.036259  -0.018615  -0.135800   0.020785   0.210188
   56  C 14  Z   -0.047127  -0.056720   0.027383   0.065642  -0.025271
   57  C 15  S   -0.131939  -0.034775   0.184331  -0.140400  -0.117031
   58  C 15  X    0.008807  -0.004151  -0.107671  -0.075643  -0.003596
   59  C 15  Y    0.042603  -0.037521  -0.021638  -0.018726  -0.021866
   60  C 15  Z    0.033524  -0.073996   0.030765  -0.075405  -0.050589
   61  C 16  S   -0.159975  -0.086517   0.279204   0.137286  -0.023057
   62  C 16  X    0.005372   0.047868  -0.025372   0.022138  -0.080704
   63  C 16  Y   -0.022556   0.015527  -0.008763   0.100000  -0.029009
   64  C 16  Z    0.014082  -0.017558  -0.058633   0.072824   0.068978
   65  C 17  S    0.006861  -0.068650   0.258874  -0.181535  -0.037096
   66  C 17  X   -0.059707   0.061121   0.028247   0.062304  -0.119430
   67  C 17  Y   -0.014224   0.008099   0.075465  -0.030163  -0.055026
   68  C 17  Z   -0.072957  -0.066193   0.033184   0.059630   0.094179
   69  C 18  S   -0.128693  -0.029737   0.061390   0.213540   0.042307
   70  C 18  X    0.021219  -0.024147   0.091365   0.046581   0.036185
   71  C 18  Y    0.026594   0.074568  -0.028993   0.081648  -0.046895
   72  C 18  Z    0.040165   0.066766  -0.051650   0.004585  -0.048095
   73  C 19  S   -0.167027  -0.021540   0.049340   0.229030  -0.033895
   74  C 19  X    0.022677   0.004588  -0.050667  -0.043099   0.029197
   75  C 19  Y    0.024616  -0.037904  -0.125252   0.042794   0.076506
   76  C 19  Z    0.053606  -0.055669   0.031287   0.064028  -0.029747
   77  C 20  S    0.098638  -0.233495  -0.010965  -0.214608   0.262808
   78  C 20  X   -0.008426   0.016522   0.124896  -0.034084  -0.024190
   79  C 20  Y    0.017055  -0.038469  -0.044028  -0.017793   0.019582
   80  C 20  Z   -0.117076  -0.041546   0.011218   0.044283   0.036743
   81  C 21  S    0.308303  -0.124236  -0.186145  -0.056172   0.133475
   82  C 21  X    0.073935   0.050342   0.035665  -0.081578  -0.033740
   83  C 21  Y    0.037763   0.002499  -0.053080   0.085827  -0.025720
   84  C 21  Z   -0.036585  -0.089950  -0.020605  -0.064759   0.087023
   85  C 22  S    0.080958  -0.190114  -0.127235   0.225484  -0.088494
   86  C 22  X   -0.073942   0.031316  -0.017198  -0.032092   0.049502
   87  C 22  Y    0.077645  -0.051166  -0.033492  -0.085786  -0.068353
   88  C 22  Z    0.071638   0.022712   0.084905   0.039936  -0.049443
   89  C 23  S   -0.001367  -0.202362  -0.241186  -0.069626  -0.039263
   90  C 23  X   -0.026408   0.057738   0.015769   0.062629   0.081201
   91  C 23  Y    0.041557   0.003161   0.077826  -0.042764  -0.101164
   92  C 23  Z    0.088266  -0.064258   0.026768   0.058730  -0.132146
   93  C 24  S    0.081845   0.171744   0.155317  -0.205635   0.256819
   94  C 24  X    0.120688   0.014900   0.049703   0.017024   0.067548
   95  C 24  Y    0.031868  -0.077211   0.051956   0.011054   0.028873
   96  C 24  Z    0.043593   0.074165  -0.061442   0.050442   0.005296
   97  C 25  S    0.317436  -0.048793   0.172128  -0.116502   0.037473
   98  C 25  X    0.047637  -0.092402  -0.062989   0.059060  -0.170154
   99  C 25  Y   -0.074005  -0.039165  -0.016513  -0.029095  -0.070136
  100  C 25  Z    0.019999   0.087441  -0.019717   0.070910   0.122250
  101  C 26  S    0.102759  -0.219823   0.033238  -0.224913  -0.258975
  102  C 26  X    0.003423  -0.034395  -0.123866   0.035473  -0.018976
  103  C 26  Y   -0.016548   0.037396   0.024477   0.021074   0.011971
  104  C 26  Z    0.119799  -0.031495   0.026834   0.039378  -0.034827
  105  C 27  S    0.314406  -0.022359   0.055235   0.209682   0.011630
  106  C 27  X   -0.061047  -0.097782  -0.047992   0.030101  -0.120340
  107  C 27  Y    0.046000  -0.042517   0.003980  -0.101164  -0.036765
  108  C 27  Z   -0.051354   0.080385   0.011107  -0.007937   0.081743
  109  C 28  S    0.099913   0.213975  -0.000121   0.232161   0.064604
  110  C 28  X    0.036638  -0.089486   0.055603   0.076333   0.037096
  111  C 28  Y    0.114790   0.040103   0.034310  -0.033571   0.096358
  112  C 28  Z   -0.015623  -0.010111  -0.007532  -0.044585  -0.004059

                     11         12         13         14         15
                   -0.9738    -0.9708    -0.9610    -0.9604    -0.9586
                     A          A          A          A          A   
    1  C  1  S    0.219586  -0.274212   0.006402  -0.116774  -0.075597
    2  C  1  X   -0.040116  -0.039221  -0.017559   0.043730  -0.082607
    3  C  1  Y    0.056619   0.047832   0.076205   0.020933   0.106514
    4  C  1  Z    0.065402   0.020132  -0.024300  -0.132982   0.108308
    5  C  2  S   -0.091093   0.134548   0.330824  -0.022655  -0.079362
    6  C  2  X    0.005682  -0.052115   0.028149   0.137815   0.079424
    7  C  2  Y    0.051241   0.010544   0.018901   0.020218  -0.043593
    8  C  2  Z    0.083761  -0.034771   0.017552   0.128940  -0.000583
    9  C  3  S   -0.126965   0.048472   0.023084  -0.128636  -0.059476
   10  C  3  X    0.043048   0.052352   0.061578   0.059846  -0.095503
   11  C  3  Y   -0.058347  -0.063834  -0.169063   0.050708   0.065225
   12  C  3  Z    0.028662   0.033632  -0.023047   0.128937  -0.100550
   13  C  4  S    0.062260  -0.106027  -0.049425  -0.181967   0.280589
   14  C  4  X   -0.013235  -0.005601  -0.005356  -0.017399   0.010788
   15  C  4  Y   -0.011667   0.053002  -0.024963   0.164676   0.113356
   16  C  4  Z   -0.198070   0.036829  -0.050009   0.012481   0.003191
   17  C  5  S   -0.013402   0.008114   0.107666  -0.012323  -0.113705
   18  C  5  X   -0.145803   0.025593   0.003010  -0.021320  -0.036808
   19  C  5  Y    0.007931   0.188309  -0.020256  -0.052569   0.022303
   20  C  5  Z    0.122206   0.025516   0.018334   0.002584   0.013032
   21  C  6  S   -0.024726   0.105891   0.001812   0.260545   0.205369
   22  C  6  X   -0.034724   0.025722   0.029147   0.061149  -0.076424
   23  C  6  Y   -0.017030   0.045481   0.046888   0.064421  -0.135576
   24  C  6  Z   -0.192752  -0.118957  -0.055351   0.008144   0.004005
   25  C  7  S    0.116914   0.341947   0.021454   0.081529  -0.104668
   26  C  7  X   -0.061434   0.026897  -0.065862  -0.058441  -0.110070
   27  C  7  Y   -0.023527   0.002017  -0.039537   0.018816  -0.057317
   28  C  7  Z    0.057080  -0.000443   0.022852   0.138807   0.059898
   29  C  8  S   -0.019957  -0.011163  -0.190692   0.027818  -0.179827
   30  C  8  X    0.152298   0.017413   0.005196  -0.025842  -0.046987
   31  C  8  Y   -0.078967  -0.063594  -0.027555  -0.043651   0.027267
   32  C  8  Z    0.097502   0.020356   0.034848  -0.010214  -0.002061
   33  C  9  S   -0.335170  -0.059326   0.119200  -0.001643   0.107760
   34  C  9  X   -0.002706   0.023735   0.006554  -0.045012   0.169027
   35  C  9  Y   -0.029274   0.090267  -0.052432  -0.195383  -0.010498
   36  C  9  Z   -0.006258  -0.001061   0.000267  -0.000221  -0.006346
   37  C 10  S   -0.040476   0.029481   0.007236   0.296155   0.114255
   38  C 10  X    0.079789   0.107192   0.088756  -0.058198   0.135812
   39  C 10  Y   -0.115114  -0.099064   0.119078   0.002729   0.047517
   40  C 10  Z    0.069415   0.062656  -0.073814   0.020287  -0.023538
   41  C 11  S    0.230803   0.118177   0.097455  -0.025153   0.091077
   42  C 11  X    0.027363  -0.087465   0.111287  -0.116896  -0.088209
   43  C 11  Y    0.025779  -0.015778   0.147109   0.008149   0.004532
   44  C 11  Z    0.007052  -0.049950  -0.053083  -0.098275  -0.070019
   45  C 12  S   -0.085200  -0.064974  -0.125076  -0.238284   0.205747
   46  C 12  X    0.133751  -0.093143   0.026326   0.069750   0.071014
   47  C 12  Y    0.082790  -0.011704  -0.142549  -0.005097  -0.107921
   48  C 12  Z    0.084424  -0.039805  -0.073771  -0.000530  -0.024305
   49  C 13  S    0.125514  -0.047541   0.041845   0.035469   0.093596
   50  C 13  X   -0.018805   0.071193   0.040868   0.071538  -0.100948
   51  C 13  Y    0.000890  -0.083633  -0.172484   0.041760   0.039986
   52  C 13  Z   -0.013235   0.047053  -0.018674   0.099757  -0.100200
   53  C 14  S    0.145964   0.043822   0.271106  -0.086153  -0.175865
   54  C 14  X   -0.059133   0.005411  -0.056151   0.022871  -0.068387
   55  C 14  Y   -0.045273   0.053586  -0.001098   0.076584   0.014624
   56  C 14  Z   -0.084481  -0.016736  -0.087592  -0.008796  -0.159937
   57  C 15  S    0.087639   0.036633  -0.210606  -0.068260  -0.194656
   58  C 15  X    0.043913  -0.199468  -0.072601  -0.021769   0.074162
   59  C 15  Y    0.037699  -0.045585   0.044675   0.072821  -0.028257
   60  C 15  Z    0.072540  -0.059270   0.066100   0.119671  -0.068195
   61  C 16  S   -0.120350  -0.341692  -0.102389   0.028286   0.059572
   62  C 16  X    0.002670   0.003130  -0.063645  -0.072115  -0.110035
   63  C 16  Y   -0.002237  -0.011639  -0.055760   0.025455  -0.046487
   64  C 16  Z    0.001682   0.005775   0.006927   0.123320   0.080969
   65  C 17  S   -0.006311  -0.014330  -0.112941  -0.098066   0.090417
   66  C 17  X    0.039425  -0.127203   0.033904  -0.035492  -0.043590
   67  C 17  Y    0.021063  -0.037366  -0.008901  -0.030707  -0.000994
   68  C 17  Z   -0.109980  -0.129508   0.048442   0.005784   0.021072
   69  C 18  S    0.112615  -0.114320   0.089223   0.288668   0.131236
   70  C 18  X   -0.043921  -0.115035  -0.140846  -0.022539   0.082278
   71  C 18  Y    0.139389   0.042566  -0.087589   0.018884  -0.009280
   72  C 18  Z    0.099448   0.065177  -0.045553  -0.002838  -0.036386
   73  C 19  S   -0.169514  -0.030285  -0.134666  -0.029151  -0.251268
   74  C 19  X    0.010547   0.060541   0.029315   0.013297  -0.015058
   75  C 19  Y   -0.061742   0.192652  -0.016097   0.065865   0.001657
   76  C 19  Z   -0.063626  -0.019215  -0.125407   0.039239   0.129940
   77  C 20  S   -0.110471   0.218610  -0.049341  -0.122302  -0.038143
   78  C 20  X   -0.006706  -0.014162  -0.036468   0.055834   0.107939
   79  C 20  Y   -0.002926   0.013762   0.016375  -0.022966  -0.039906
   80  C 20  Z   -0.088299  -0.049291   0.201888  -0.028051   0.036718
   81  C 21  S    0.040942  -0.028306  -0.215597   0.050643  -0.209663
   82  C 21  X   -0.027215   0.139322  -0.059192   0.111025   0.055753
   83  C 21  Y    0.012197  -0.150744   0.039335   0.033402  -0.033399
   84  C 21  Z    0.012121   0.081609  -0.009038  -0.156021  -0.016806
   85  C 22  S   -0.219263   0.265313  -0.118333   0.034405   0.071419
   86  C 22  X   -0.016486  -0.009277  -0.012747   0.060354  -0.087113
   87  C 22  Y    0.034194  -0.001645   0.098895   0.008896   0.092902
   88  C 22  Z    0.029189  -0.002757  -0.018860  -0.108494   0.114449
   89  C 23  S   -0.005772  -0.001125  -0.054869   0.202234   0.043033
   90  C 23  X   -0.047383   0.087002   0.006302  -0.012042  -0.029038
   91  C 23  Y    0.047629  -0.097193   0.009603  -0.039661   0.028020
   92  C 23  Z   -0.098004   0.092648   0.062533  -0.014976   0.022908
   93  C 24  S   -0.228538  -0.114429   0.012805   0.100533  -0.088354
   94  C 24  X    0.067093  -0.037274   0.111810  -0.110552  -0.089460
   95  C 24  Y    0.032612  -0.002593   0.119282   0.007599  -0.020896
   96  C 24  Z    0.030993  -0.023376  -0.069869  -0.114366  -0.054583
   97  C 25  S   -0.048492  -0.129573   0.318374  -0.130514  -0.067659
   98  C 25  X    0.036308   0.048910   0.018653  -0.068355   0.110559
   99  C 25  Y   -0.003720  -0.024992   0.014265   0.081389  -0.036244
  100  C 25  Z    0.006766   0.047936  -0.058997  -0.104198   0.044894
  101  C 26  S    0.098478  -0.215682   0.074588   0.097125  -0.093875
  102  C 26  X   -0.011868   0.005276  -0.045955   0.028253   0.117891
  103  C 26  Y    0.001289   0.005332   0.006664  -0.006521  -0.023458
  104  C 26  Z   -0.086252   0.032547   0.203192  -0.031013   0.035649
  105  C 27  S    0.063556   0.143198  -0.017676  -0.260885   0.222258
  106  C 27  X   -0.101879   0.073648  -0.041406   0.068300   0.060112
  107  C 27  Y   -0.071551  -0.043486   0.151272  -0.043189  -0.032276
  108  C 27  Z    0.086266  -0.030985  -0.056302   0.006072  -0.034805
  109  C 28  S    0.344319   0.059114  -0.147553   0.024737   0.024144
  110  C 28  X    0.001414   0.004457  -0.018689  -0.041182   0.154904
  111  C 28  Y   -0.031881   0.016782  -0.045670  -0.190781  -0.007643
  112  C 28  Z   -0.013912  -0.002579  -0.000220  -0.001917  -0.034543

                     16         17         18         19         20
                   -0.9514    -0.7661    -0.7655    -0.7644    -0.7625
                     A          A          A          A          A   
    1  C  1  S    0.033171  -0.013207  -0.033689  -0.001682  -0.166671
    2  C  1  X   -0.013961  -0.076999   0.043873   0.093550   0.055083
    3  C  1  Y    0.156054   0.162045  -0.023403  -0.084069   0.011024
    4  C  1  Z   -0.114703   0.047354  -0.083335  -0.154948  -0.125864
    5  C  2  S   -0.058414   0.234237   0.084437   0.136866  -0.026030
    6  C  2  X    0.056155  -0.112165   0.072766  -0.056052  -0.159426
    7  C  2  Y   -0.032971   0.015239  -0.159517  -0.000719   0.077700
    8  C  2  Z    0.025771  -0.047964  -0.170753  -0.034491   0.012519
    9  C  3  S   -0.016993  -0.016423  -0.038771  -0.069752   0.285920
   10  C  3  X    0.033101   0.082085  -0.103492   0.129128  -0.009690
   11  C  3  Y    0.086882  -0.228618   0.084095  -0.070983  -0.024673
   12  C  3  Z    0.116125  -0.049707  -0.107429   0.140396   0.022385
   13  C  4  S   -0.084231   0.014614   0.023606  -0.263755  -0.071597
   14  C  4  X   -0.025553  -0.010949   0.012185  -0.001234   0.015550
   15  C  4  Y    0.058586  -0.008418   0.010777   0.154875  -0.005160
   16  C  4  Z   -0.030424  -0.143389   0.133301  -0.016892   0.179395
   17  C  5  S    0.329309  -0.027348   0.034609  -0.000692   0.040212
   18  C  5  X    0.022406  -0.079900   0.037790  -0.020063  -0.015860
   19  C  5  Y   -0.005358  -0.035281  -0.074325  -0.077478   0.020831
   20  C  5  Z    0.050233   0.058277  -0.047571  -0.001650   0.022450
   21  C  6  S   -0.106439   0.023543  -0.023025   0.273605   0.014246
   22  C  6  X   -0.060170  -0.006763  -0.018386   0.055668   0.012535
   23  C  6  Y   -0.046596   0.013435  -0.037095   0.094816   0.047766
   24  C  6  Z   -0.019784  -0.140767   0.075856   0.023237  -0.163408
   25  C  7  S    0.006020  -0.022186   0.011925  -0.007289   0.196034
   26  C  7  X   -0.091982  -0.119414   0.107135  -0.120932  -0.053180
   27  C  7  Y   -0.131924  -0.048133   0.074526  -0.022957   0.009913
   28  C  7  Z   -0.131913   0.100677  -0.021708   0.148580   0.070815
   29  C  8  S    0.253066  -0.036224   0.022070   0.022824  -0.028228
   30  C  8  X    0.028370   0.151489  -0.029549  -0.020819  -0.071338
   31  C  8  Y    0.007832   0.068809   0.158428  -0.046811  -0.140613
   32  C  8  Z   -0.021708   0.069892  -0.041153  -0.003695  -0.015513
   33  C  9  S    0.032303   0.056874  -0.012078   0.006659  -0.066825
   34  C  9  X   -0.154627   0.077918  -0.146323   0.002615  -0.072224
   35  C  9  Y    0.063721  -0.162148  -0.184791   0.000420  -0.160881
   36  C  9  Z    0.001860  -0.005865   0.001736  -0.000867   0.005363
   37  C 10  S   -0.153199   0.204057   0.087665  -0.148707   0.103831
   38  C 10  X   -0.008129   0.087268   0.002624  -0.098048  -0.180296
   39  C 10  Y   -0.019689   0.078228   0.105616   0.062073   0.000670
   40  C 10  Z   -0.018458  -0.055027  -0.065364  -0.031392  -0.002204
   41  C 11  S    0.033200   0.039994   0.062951   0.016159  -0.207443
   42  C 11  X    0.008628  -0.115684   0.112904   0.204096  -0.059480
   43  C 11  Y   -0.113015  -0.051189   0.166187   0.041078  -0.051227
   44  C 11  Z    0.111749  -0.047022  -0.068649   0.119523   0.023912
   45  C 12  S   -0.087608   0.017080  -0.249075   0.133964  -0.077347
   46  C 12  X    0.008575   0.053585  -0.019295   0.107468   0.229184
   47  C 12  Y    0.017235   0.040750   0.127828  -0.013889  -0.026546
   48  C 12  Z   -0.014834   0.034019   0.069852   0.019871   0.060272
   49  C 13  S    0.075109  -0.074666  -0.063235  -0.032548   0.285085
   50  C 13  X    0.052412  -0.051079   0.078442  -0.149452  -0.011925
   51  C 13  Y    0.087229   0.234833  -0.032027   0.098495  -0.022910
   52  C 13  Z    0.093772   0.035595   0.083274  -0.130452  -0.049481
   53  C 14  S   -0.063807  -0.232158   0.167588   0.022667  -0.034482
   54  C 14  X    0.021264   0.027698  -0.046969  -0.067699   0.039656
   55  C 14  Y    0.006679  -0.089041  -0.070919  -0.217997   0.188272
   56  C 14  Z    0.000598   0.130772  -0.071345  -0.007598  -0.025775
   57  C 15  S   -0.192466  -0.009528   0.228777  -0.122414  -0.049161
   58  C 15  X    0.024716   0.147573   0.001821   0.097479  -0.078529
   59  C 15  Y   -0.004953   0.027834   0.065669  -0.015878   0.037807
   60  C 15  Z   -0.066653   0.036918   0.090822  -0.032451   0.083503
   61  C 16  S   -0.016503  -0.018078  -0.040991  -0.034130   0.185898
   62  C 16  X   -0.069374   0.124715  -0.103768   0.133989   0.039939
   63  C 16  Y   -0.160670   0.049079  -0.069826   0.025398  -0.035175
   64  C 16  Z   -0.113581  -0.098938   0.032338  -0.141656  -0.061031
   65  C 17  S    0.316829  -0.004964  -0.080009  -0.040071   0.087128
   66  C 17  X   -0.025409   0.031891  -0.009834   0.124999   0.020904
   67  C 17  Y    0.040123   0.012875  -0.015938   0.040455   0.004809
   68  C 17  Z    0.017781  -0.027928   0.120801  -0.015421   0.112012
   69  C 18  S   -0.107572  -0.197561  -0.055978  -0.118751  -0.161391
   70  C 18  X   -0.060724  -0.091552   0.056917  -0.106841   0.093162
   71  C 18  Y   -0.067314  -0.041646  -0.099613   0.045581  -0.035494
   72  C 18  Z   -0.008835  -0.017604  -0.090256   0.051344  -0.041818
   73  C 19  S   -0.189956   0.212556  -0.121032  -0.005065  -0.011054
   74  C 19  X    0.041795  -0.005060   0.016098  -0.047293  -0.042762
   75  C 19  Y   -0.007785   0.019150   0.026443  -0.166444  -0.113425
   76  C 19  Z   -0.070946   0.078384  -0.064709  -0.005012   0.041908
   77  C 20  S    0.043371  -0.018266   0.055961   0.062977  -0.051644
   78  C 20  X    0.174130  -0.011121  -0.018146  -0.158247   0.057279
   79  C 20  Y   -0.066542   0.009688   0.008804   0.057908  -0.023812
   80  C 20  Z    0.029807   0.155727   0.255248   0.035629  -0.038715
   81  C 21  S   -0.181745  -0.218657  -0.097648   0.133341   0.046611
   82  C 21  X    0.006333   0.067711  -0.055448  -0.098810   0.109631
   83  C 21  Y   -0.018491   0.004895   0.086286   0.023878   0.007981
   84  C 21  Z   -0.033485  -0.045693  -0.058391   0.053518  -0.136596
   85  C 22  S   -0.017579   0.032066  -0.009234   0.030556  -0.143979
   86  C 22  X    0.021552   0.076560  -0.045356  -0.112141  -0.069191
   87  C 22  Y    0.161637  -0.152637   0.025957   0.097170  -0.027885
   88  C 22  Z   -0.103818  -0.060307   0.065356   0.159180   0.101922
   89  C 23  S    0.290625   0.072411   0.024993   0.018212  -0.102319
   90  C 23  X   -0.031415  -0.012064  -0.030369  -0.098017   0.005114
   91  C 23  Y   -0.030098  -0.003963   0.029487   0.123064  -0.013753
   92  C 23  Z    0.003744  -0.112586  -0.038861   0.036958  -0.155245
   93  C 24  S    0.002988   0.052253  -0.013265   0.038329  -0.199452
   94  C 24  X   -0.001223   0.153364  -0.120245  -0.187589   0.047005
   95  C 24  Y   -0.092855   0.064888  -0.134303  -0.034307   0.020022
   96  C 24  Z    0.135755   0.057433   0.083422  -0.118773  -0.022266
   97  C 25  S   -0.049445  -0.019765  -0.241311  -0.165690   0.076613
   98  C 25  X    0.053550  -0.170398   0.047971   0.091752   0.106116
   99  C 25  Y   -0.025032  -0.057068  -0.056509  -0.013145  -0.047455
  100  C 25  Z    0.064344   0.117383   0.080725   0.004293   0.041895
  101  C 26  S   -0.015593  -0.026175   0.050589  -0.013190  -0.049803
  102  C 26  X    0.186132   0.028485   0.005504   0.156916  -0.062090
  103  C 26  Y   -0.034612  -0.003706   0.008994  -0.027037   0.002649
  104  C 26  Z    0.024267  -0.183216  -0.233799  -0.028533   0.023301
  105  C 27  S   -0.061820  -0.032171   0.190297   0.122590   0.188218
  106  C 27  X   -0.038586  -0.102029  -0.014542   0.133483  -0.063365
  107  C 27  Y    0.086149  -0.045224  -0.123575  -0.026233   0.039701
  108  C 27  Z    0.000379   0.083647   0.079457  -0.053686   0.005824
  109  C 28  S   -0.004788   0.005977   0.034734   0.006858  -0.061089
  110  C 28  X   -0.151431  -0.059409   0.135757  -0.004512   0.057631
  111  C 28  Y    0.068389   0.169740   0.204194  -0.011133   0.129133
  112  C 28  Z    0.037031   0.022513  -0.014279   0.002249  -0.011577

                     21         22         23         24         25
                   -0.7608    -0.7571    -0.7535    -0.7526    -0.7035
                     A          A          A          A          A   
    1  C  1  S   -0.174251   0.133729   0.142283  -0.070623   0.097550
    2  C  1  X   -0.039684  -0.041299   0.026905   0.024237  -0.027194
    3  C  1  Y    0.062365   0.015011  -0.139604  -0.186101  -0.045273
    4  C  1  Z    0.079333   0.058005   0.062263   0.168723   0.020258
    5  C  2  S   -0.103856  -0.020408  -0.031034  -0.028449  -0.102326
    6  C  2  X    0.000695   0.115053   0.033732  -0.046119  -0.194505
    7  C  2  Y   -0.099104  -0.092633   0.029080   0.021816  -0.017514
    8  C  2  Z   -0.138587  -0.015211   0.092020  -0.034464  -0.140091
    9  C  3  S   -0.090783  -0.078288  -0.022960  -0.019554   0.094922
   10  C  3  X   -0.041383   0.061160   0.027551  -0.021476  -0.031876
   11  C  3  Y    0.092495   0.124574  -0.026734  -0.054289  -0.043406
   12  C  3  Z   -0.009446   0.209628   0.016764  -0.093404  -0.014842
   13  C  4  S    0.117236  -0.057949   0.049322   0.029040  -0.100661
   14  C  4  X   -0.006384  -0.037186   0.007093   0.023231  -0.004973
   15  C  4  Y    0.134631   0.029956  -0.048678  -0.097912  -0.237120
   16  C  4  Z    0.005173  -0.192648  -0.075541  -0.001522  -0.009786
   17  C  5  S   -0.037007  -0.138377  -0.259626  -0.204405   0.090377
   18  C  5  X    0.066282  -0.152781   0.011472   0.061973  -0.004342
   19  C  5  Y    0.034803   0.030835  -0.145088   0.166659  -0.003195
   20  C  5  Z   -0.051229   0.125724  -0.065724  -0.028650  -0.016270
   21  C  6  S    0.094211  -0.079029   0.085786   0.020642  -0.090820
   22  C  6  X   -0.091457  -0.050125   0.061860   0.033565   0.121215
   23  C  6  Y   -0.118034  -0.013291   0.061895   0.058777   0.208395
   24  C  6  Z   -0.089273  -0.191516  -0.035763  -0.106807  -0.006208
   25  C  7  S   -0.040537   0.119298  -0.033882   0.221080   0.091871
   26  C  7  X   -0.083058  -0.026449   0.115172   0.064323  -0.000632
   27  C  7  Y   -0.039706   0.018985   0.161482   0.075794   0.051789
   28  C  7  Z    0.062787   0.060083   0.206310   0.025575   0.027241
   29  C  8  S    0.071070   0.353956  -0.020299  -0.001429   0.089074
   30  C  8  X    0.111743  -0.006032   0.089214   0.090274  -0.010077
   31  C  8  Y   -0.070365  -0.009382  -0.105170   0.063798  -0.001365
   32  C  8  Z    0.068061  -0.008880   0.063951   0.038128   0.019670
   33  C  9  S    0.249411  -0.112413   0.134226   0.046951   0.100373
   34  C  9  X    0.063100   0.210777   0.109487   0.116633   0.037229
   35  C  9  Y   -0.022339  -0.076791  -0.097033   0.010764  -0.011146
   36  C  9  Z   -0.021027   0.022206  -0.006973   0.001572  -0.033256
   37  C 10  S   -0.010793   0.090135  -0.030026   0.073852  -0.101169
   38  C 10  X   -0.048760   0.082131  -0.132916  -0.005703   0.196969
   39  C 10  Y    0.140554   0.042558   0.162230   0.043362   0.110761
   40  C 10  Z   -0.081514  -0.000069  -0.104779  -0.004044  -0.092651
   41  C 11  S   -0.204115  -0.054245  -0.099399  -0.004749   0.100822
   42  C 11  X    0.033646  -0.033771   0.055037   0.041993   0.016231
   43  C 11  Y    0.043534   0.137215  -0.117693   0.062615   0.010587
   44  C 11  Z    0.015802  -0.126593   0.147068  -0.014345  -0.046837
   45  C 12  S   -0.057647   0.066784   0.030764  -0.044154  -0.100454
   46  C 12  X   -0.070046   0.051329  -0.064365  -0.128115   0.106056
   47  C 12  Y   -0.147934  -0.067035  -0.067361  -0.039326  -0.192284
   48  C 12  Z   -0.101110   0.009364  -0.039439  -0.070626  -0.090547
   49  C 13  S   -0.084812  -0.048612  -0.022705  -0.038133   0.096623
   50  C 13  X    0.039464  -0.086444   0.043039   0.087205   0.010393
   51  C 13  Y   -0.076462  -0.111627  -0.064056   0.098374  -0.020311
   52  C 13  Z    0.027597  -0.119379   0.027201   0.124335  -0.045641
   53  C 14  S    0.097946  -0.005802  -0.008875  -0.034439  -0.105251
   54  C 14  X    0.063771  -0.051984   0.062241  -0.008323  -0.084438
   55  C 14  Y    0.031561   0.028583   0.069120  -0.087383   0.026823
   56  C 14  Z    0.123246  -0.075401   0.055793   0.013749  -0.225183
   57  C 15  S   -0.096288   0.063568   0.110778  -0.050433  -0.093817
   58  C 15  X    0.044134  -0.044162  -0.091516  -0.223338  -0.117790
   59  C 15  Y    0.072400   0.004854   0.005313  -0.067954   0.110650
   60  C 15  Z    0.125743   0.034610   0.065957  -0.119921   0.178208
   61  C 16  S   -0.028077   0.115959  -0.101937   0.209820   0.096529
   62  C 16  X    0.077817  -0.035322  -0.074208   0.018216   0.026941
   63  C 16  Y    0.044841  -0.013933  -0.229197  -0.014176   0.014233
   64  C 16  Z   -0.045354   0.044870  -0.181925  -0.005160   0.049838
   65  C 17  S   -0.032155  -0.091296   0.315398  -0.101062   0.094231
   66  C 17  X   -0.108989  -0.040525   0.033100   0.165064   0.007254
   67  C 17  Y   -0.043635  -0.029101   0.022909   0.045369  -0.014792
   68  C 17  Z    0.061379   0.149184   0.072320   0.083778  -0.007743
   69  C 18  S   -0.084448  -0.062117  -0.070787   0.030860  -0.091126
   70  C 18  X    0.034580   0.015890  -0.152725   0.090302   0.212956
   71  C 18  Y    0.107099  -0.184827   0.009672  -0.029371   0.108076
   72  C 18  Z    0.076997  -0.116482   0.064838  -0.038187   0.054830
   73  C 19  S    0.135938   0.047250  -0.086676  -0.093226  -0.094203
   74  C 19  X    0.004710  -0.018563   0.082529  -0.029112  -0.032288
   75  C 19  Y   -0.069375   0.026182   0.132855  -0.203911   0.016961
   76  C 19  Z   -0.118307   0.088633  -0.110256  -0.053632   0.245104
   77  C 20  S    0.266727   0.030554  -0.098918  -0.108645   0.094011
   78  C 20  X   -0.035556   0.001261   0.189241  -0.153870  -0.054861
   79  C 20  Y   -0.006598  -0.003238  -0.076348   0.078184  -0.013342
   80  C 20  Z   -0.037002   0.074302   0.065046  -0.013018   0.000255
   81  C 21  S   -0.015806   0.023459  -0.030799   0.133657  -0.096517
   82  C 21  X    0.085427  -0.039984  -0.150228  -0.050239  -0.165082
   83  C 21  Y   -0.136737   0.032218   0.163411   0.034930  -0.032370
   84  C 21  Z    0.123386   0.007778  -0.099210   0.045960   0.178438
   85  C 22  S   -0.183410   0.131945   0.130311  -0.119289   0.098529
   86  C 22  X    0.028795  -0.019498   0.031084   0.032320   0.021900
   87  C 22  Y   -0.035737  -0.000824   0.037416   0.239598  -0.033808
   88  C 22  Z   -0.064388   0.049450  -0.040368  -0.146101   0.040324
   89  C 23  S   -0.002194  -0.124350  -0.034954   0.321016   0.091326
   90  C 23  X   -0.079988  -0.003473   0.097443   0.003227   0.015237
   91  C 23  Y    0.098593   0.028806  -0.107776  -0.026022   0.005742
   92  C 23  Z    0.008898   0.133223   0.070581   0.037856  -0.005414
   93  C 24  S   -0.212804  -0.098942  -0.078894  -0.009136   0.096387
   94  C 24  X   -0.037673   0.000772  -0.005282   0.049652  -0.008801
   95  C 24  Y   -0.046190  -0.128692   0.050146  -0.004245   0.057186
   96  C 24  Z    0.004208   0.202850  -0.101631   0.057707  -0.022591
   97  C 25  S   -0.009989  -0.020247  -0.056945  -0.022353  -0.098163
[...]
   61  C 16  S    0.011795  -0.017193  -0.002245  -0.067772   0.015018
   62  C 16  X   -0.009894   0.041077   0.042523  -0.238172  -0.054981
   63  C 16  Y    0.021654  -0.024313  -0.020678   0.213728  -0.013246
   64  C 16  Z    0.010891   0.061246   0.024732  -0.188563   0.023532
   65  C 17  S    0.034264   0.060739   0.019582  -0.025851  -0.024773
   66  C 17  X    0.088294   0.133069   0.020587  -0.042665   0.026431
   67  C 17  Y   -0.206192  -0.297871  -0.098305   0.143302   0.029134
   68  C 17  Z   -0.016565  -0.050984  -0.007531   0.056891  -0.014466
   69  C 18  S   -0.025488  -0.000494   0.029992   0.025176  -0.073395
   70  C 18  X   -0.014494  -0.042506   0.018638   0.072166  -0.045942
   71  C 18  Y    0.091411   0.075941  -0.072929  -0.117175   0.124519
   72  C 18  Z   -0.125717  -0.143625   0.114842   0.104147  -0.244829
   73  C 19  S   -0.007220   0.016205  -0.020713   0.042674   0.063059
   74  C 19  X   -0.008409  -0.025302  -0.178768   0.144818   0.268618
   75  C 19  Y    0.004055   0.016858   0.045313  -0.095832  -0.036303
   76  C 19  Z   -0.000245  -0.026993  -0.058343   0.037840   0.072575
   77  C 20  S    0.018386   0.011757   0.009165   0.012121   0.063231
   78  C 20  X   -0.065406  -0.095703   0.002695  -0.000295  -0.100812
   79  C 20  Y   -0.132526  -0.207148   0.064725  -0.030820  -0.272893
   80  C 20  Z   -0.001253   0.032475  -0.008110  -0.041612   0.002830
   81  C 21  S   -0.020147   0.023605  -0.026039  -0.041989  -0.022786
   82  C 21  X    0.090097  -0.075972   0.054973   0.101773   0.014923
   83  C 21  Y    0.124474  -0.139133   0.131254   0.114710   0.103158
   84  C 21  Z    0.068882  -0.132339   0.096763   0.077205   0.018684
   85  C 22  S    0.002974  -0.021504   0.016517   0.029740  -0.068424
   86  C 22  X    0.016114   0.038979   0.150069   0.162485  -0.264568
   87  C 22  Y    0.020682  -0.004083   0.013031   0.065524  -0.034577
   88  C 22  Z   -0.017481   0.034004   0.094114   0.137288  -0.137614
   89  C 23  S   -0.066769   0.043528   0.039001   0.014951  -0.013094
   90  C 23  X   -0.299929   0.155971   0.163684   0.046090  -0.034122
   91  C 23  Y   -0.226364   0.149949   0.170261   0.032412  -0.086303
   92  C 23  Z    0.029849  -0.011121  -0.014760  -0.042484   0.013769
   93  C 24  S    0.024461   0.009694   0.023631   0.044671   0.000486
   94  C 24  X   -0.052074  -0.055307  -0.054705  -0.124549   0.086271
   95  C 24  Y    0.044454   0.135222   0.060933   0.207525  -0.089053
   96  C 24  Z    0.050418   0.068899   0.088067   0.148775  -0.047092
   97  C 25  S    0.018704  -0.024836  -0.029694  -0.019726  -0.035229
   98  C 25  X    0.020669  -0.004050   0.003096   0.035015  -0.033716
   99  C 25  Y    0.236907  -0.218559  -0.097967  -0.197832  -0.071541
  100  C 25  Z    0.132641  -0.135665  -0.068566  -0.107559  -0.006242
  101  C 26  S   -0.012468  -0.021476   0.001368  -0.014446   0.058035
  102  C 26  X   -0.002662  -0.050112  -0.069959  -0.008006   0.050068
  103  C 26  Y   -0.167246  -0.127035  -0.161589   0.005085   0.285509
  104  C 26  Z   -0.005564   0.003835  -0.001157   0.030060   0.002628
  105  C 27  S    0.024510   0.010464   0.011858  -0.066286   0.011570
  106  C 27  X    0.111089  -0.048591  -0.006651  -0.156138   0.050110
  107  C 27  Y    0.095785  -0.013414   0.019657  -0.109967   0.034422
  108  C 27  Z    0.215051  -0.069427   0.038758  -0.270906  -0.040941
  109  C 28  S   -0.001033  -0.007884  -0.024921   0.039011   0.075029
  110  C 28  X   -0.020632   0.052240  -0.036584   0.042379   0.043911
  111  C 28  Y    0.006657  -0.011066   0.016449   0.031489  -0.047326
  112  C 28  Z   -0.065670   0.113761  -0.098360   0.144849   0.327635

                     61         62         63         64         65
                   -0.0434    -0.0409    -0.0397    -0.0369    -0.0351
                     A          A          A          A          A   
    1  C  1  S   -0.100517  -0.031658  -0.109416  -0.122340  -0.047595
    2  C  1  X    0.156486   0.007088   0.257444   0.083608   0.052878
    3  C  1  Y    0.101965   0.032412   0.032130   0.023788  -0.027363
    4  C  1  Z    0.102838   0.021438   0.005786   0.093128   0.029177
    5  C  2  S   -0.209394   0.064885  -0.046719  -0.046866  -0.141151
    6  C  2  X    0.135959  -0.007627   0.006469   0.062893   0.026080
    7  C  2  Y    0.205370  -0.103205   0.191245  -0.030977   0.151027
    8  C  2  Z   -0.250318   0.064556  -0.046753  -0.001198  -0.046484
    9  C  3  S    0.194056   0.035898  -0.110377   0.110505   0.001335
   10  C  3  X   -0.158886  -0.069014   0.159562  -0.098410   0.057051
   11  C  3  Y   -0.140024   0.011450  -0.011743  -0.032678  -0.080037
   12  C  3  Z    0.166718   0.097786  -0.006832   0.130386  -0.015315
   13  C  4  S   -0.037422   0.022692   0.231277   0.019177   0.041074
   14  C  4  X   -0.067955  -0.022020  -0.369136   0.004010  -0.030537
   15  C  4  Y    0.004666   0.047170   0.059692   0.006713  -0.020365
   16  C  4  Z   -0.117638  -0.023217   0.059318  -0.071416  -0.017360
   17  C  5  S    0.052238  -0.001326  -0.000971   0.123113   0.072330
   18  C  5  X   -0.078450  -0.011293  -0.006257  -0.151413  -0.085452
   19  C  5  Y    0.015296  -0.021652  -0.048795   0.042163   0.018796
   20  C  5  Z   -0.058641  -0.029807   0.009781  -0.152905  -0.133330
   21  C  6  S    0.032246  -0.102494  -0.223073  -0.039881   0.030268
   22  C  6  X   -0.020347   0.131608   0.337693  -0.035229  -0.001737
   23  C  6  Y    0.012197  -0.094733  -0.140748  -0.006631   0.014147
   24  C  6  Z   -0.004089  -0.011073  -0.058015  -0.128795   0.043722
   25  C  7  S   -0.049262   0.071627   0.103317  -0.123081   0.014575
   26  C  7  X    0.045717  -0.130362  -0.181431   0.075852   0.026362
   27  C  7  Y   -0.023131   0.143885   0.148585  -0.139424   0.068230
   28  C  7  Z    0.033024  -0.025505  -0.008180   0.131334  -0.012992
   29  C  8  S   -0.111684  -0.124730   0.028407  -0.165363   0.065609
   30  C  8  X    0.120382   0.072902  -0.035872   0.129148  -0.034227
   31  C  8  Y   -0.004177  -0.022021  -0.025008  -0.071596   0.027833
   32  C  8  Z   -0.170016  -0.205567   0.059686  -0.199071   0.106480
   33  C  9  S    0.011063  -0.020817   0.005726  -0.033386  -0.135521
   34  C  9  X    0.030552  -0.012322   0.015207   0.045917  -0.011724
   35  C  9  Y   -0.004181  -0.000517   0.050922  -0.043380  -0.050622
   36  C  9  Z   -0.041768   0.116783  -0.026691   0.095390   0.214152
   37  C 10  S   -0.042639  -0.026659   0.033724  -0.069257  -0.013164
   38  C 10  X    0.038541  -0.021173   0.008187  -0.012168  -0.110494
   39  C 10  Y    0.101093   0.015160  -0.112192   0.093891   0.100310
   40  C 10  Z    0.152606  -0.055745  -0.109492   0.065481  -0.017754
   41  C 11  S   -0.007177   0.057565  -0.027683   0.096187   0.220587
   42  C 11  X   -0.053637   0.072648  -0.055904   0.051907   0.209681
   43  C 11  Y    0.052669   0.009957   0.011451  -0.095319  -0.202872
   44  C 11  Z    0.002898  -0.052180   0.061393  -0.060582  -0.168460
   45  C 12  S   -0.032935   0.012295  -0.027844  -0.001274   0.141461
   46  C 12  X   -0.009088  -0.026398  -0.039069   0.002018   0.002624
   47  C 12  Y   -0.002300   0.036528  -0.102044  -0.068596   0.100679
   48  C 12  Z    0.017805  -0.081161   0.143660   0.046090  -0.229325
   49  C 13  S    0.041945   0.035161  -0.030021  -0.015853   0.022418
   50  C 13  X    0.002993   0.125025  -0.019293  -0.042601   0.107888
   51  C 13  Y    0.023946  -0.040222  -0.011555  -0.025439  -0.063695
   52  C 13  Z    0.031124  -0.096981  -0.030073   0.019829   0.011628
   53  C 14  S   -0.016622  -0.136015   0.046816  -0.032889  -0.174502
   54  C 14  X    0.052054  -0.276991   0.054149   0.048287  -0.152073
   55  C 14  Y   -0.014698   0.094881  -0.027926   0.024800   0.141011
   56  C 14  Z   -0.028318   0.071765  -0.015273   0.006672   0.093320
   57  C 15  S    0.025829   0.005542   0.041563   0.103445  -0.114451
   58  C 15  X   -0.022461   0.069910   0.094611  -0.067611  -0.019777
   59  C 15  Y    0.002267  -0.045163   0.163283   0.158026  -0.191132
   60  C 15  Z   -0.012508   0.084674  -0.063417  -0.097183   0.126870
   61  C 16  S   -0.155733  -0.083909   0.029132   0.096527   0.044878
   62  C 16  X   -0.124540  -0.159711   0.030856   0.072581   0.007336
   63  C 16  Y    0.192651   0.058463  -0.034174  -0.128400  -0.096126
   64  C 16  Z   -0.154084   0.006163  -0.003192   0.080532  -0.073468
   65  C 17  S    0.060391   0.047010  -0.039511  -0.093122  -0.215946
   66  C 17  X    0.086285   0.007753  -0.000621  -0.064848  -0.083117
   67  C 17  Y   -0.118096  -0.076108   0.068836   0.126852   0.307247
   68  C 17  Z    0.011131   0.019906  -0.013536   0.005958   0.045841
   69  C 18  S    0.179814  -0.101449   0.026771  -0.077915   0.070452
   70  C 18  X    0.016796   0.046564  -0.018989  -0.051707  -0.040400
   71  C 18  Y   -0.246481   0.024853  -0.043635   0.067542  -0.043621
   72  C 18  Z    0.179529  -0.185277   0.062221  -0.064906   0.067106
   73  C 19  S    0.030292   0.189388  -0.043087   0.013268   0.050803
   74  C 19  X   -0.011882   0.297933  -0.084263  -0.031036   0.083069
   75  C 19  Y   -0.111390  -0.076563   0.030901   0.091649  -0.005968
   76  C 19  Z    0.015682   0.010590  -0.003551  -0.007560  -0.059837
   77  C 20  S    0.032355  -0.085061   0.116731   0.010717   0.208273
   78  C 20  X   -0.066935   0.030221  -0.086273   0.057982  -0.004413
   79  C 20  Y   -0.106346   0.122292  -0.216809  -0.003158  -0.237957
   80  C 20  Z    0.114784  -0.011420   0.006166   0.054237  -0.001342
   81  C 21  S    0.097773   0.066210  -0.047162   0.100710  -0.066305
   82  C 21  X   -0.133967  -0.011556  -0.018943  -0.090428  -0.000778
   83  C 21  Y   -0.104696  -0.036782   0.171804  -0.068500   0.097213
   84  C 21  Z   -0.136073   0.019912   0.031323  -0.073774  -0.044914
   85  C 22  S    0.104128  -0.095898  -0.002087  -0.110152  -0.029036
   86  C 22  X    0.141613  -0.191435   0.051745  -0.097250  -0.030516
   87  C 22  Y    0.087483   0.016444  -0.036420  -0.073822   0.001321
   88  C 22  Z    0.116769  -0.001927   0.029633  -0.070424  -0.035715
   89  C 23  S   -0.070269   0.077102   0.064835   0.055772  -0.027482
   90  C 23  X   -0.108084   0.124122   0.090427   0.100753  -0.014868
   91  C 23  Y   -0.072722   0.120659   0.094053   0.062573  -0.021461
   92  C 23  Z   -0.003733   0.016423  -0.015504   0.004746   0.017486
   93  C 24  S    0.022094   0.058765   0.095824   0.215812  -0.062348
   94  C 24  X   -0.013301  -0.070210  -0.131241  -0.123455   0.075661
   95  C 24  Y   -0.053411  -0.034390   0.088527   0.191307  -0.079632
   96  C 24  Z    0.033457   0.023766  -0.008774   0.224336  -0.066177
   97  C 25  S    0.020706   0.076687   0.022750  -0.184673  -0.010797
   98  C 25  X    0.035004   0.067057   0.076959   0.024517  -0.045848
   99  C 25  Y    0.066111   0.155410   0.056479  -0.242805   0.061227
  100  C 25  Z    0.080432   0.085916  -0.039035  -0.221396   0.074473
  101  C 26  S    0.018281  -0.100402  -0.107622   0.004069   0.078322
  102  C 26  X    0.039829  -0.058877  -0.038875  -0.033879   0.001460
  103  C 26  Y    0.043069  -0.183978  -0.211485  -0.026504   0.059167
  104  C 26  Z    0.011697  -0.045748   0.004725   0.120349  -0.046919
  105  C 27  S   -0.106461  -0.097650   0.011418   0.125550   0.059868
  106  C 27  X   -0.115899   0.024924  -0.032781   0.095764   0.015772
  107  C 27  Y   -0.101631  -0.054275  -0.031248   0.150719  -0.020664
  108  C 27  Z   -0.140066  -0.206631  -0.012533   0.139209   0.031015
  109  C 28  S    0.015827   0.195481  -0.038221   0.041796  -0.085579
  110  C 28  X   -0.024237   0.009856   0.010004  -0.091379   0.018632
  111  C 28  Y    0.106752  -0.005297   0.019874  -0.054828  -0.009945
  112  C 28  Z    0.034865   0.305127  -0.042786   0.028432  -0.089987

                     66
                   -0.0326
                     A   
    1  C  1  S    0.019137
    2  C  1  X   -0.039542
    3  C  1  Y    0.058993
    4  C  1  Z   -0.031520
    5  C  2  S    0.004500
    6  C  2  X    0.044289
    7  C  2  Y    0.018759
    8  C  2  Z   -0.037528
    9  C  3  S    0.037787
   10  C  3  X   -0.063976
   11  C  3  Y   -0.029415
   12  C  3  Z    0.027586
   13  C  4  S   -0.014558
   14  C  4  X    0.053989
   15  C  4  Y    0.027610
   16  C  4  Z   -0.030424
   17  C  5  S   -0.128841
   18  C  5  X    0.118818
   19  C  5  Y   -0.054691
   20  C  5  Z    0.142276
   21  C  6  S   -0.070157
   22  C  6  X    0.017677
   23  C  6  Y   -0.045843
   24  C  6  Z    0.056986
   25  C  7  S    0.152586
   26  C  7  X   -0.073585
   27  C  7  Y    0.096590
   28  C  7  Z   -0.096322
   29  C  8  S   -0.029516
   30  C  8  X    0.011002
   31  C  8  Y    0.010719
   32  C  8  Z   -0.024518
   33  C  9  S    0.116648
   34  C  9  X   -0.063484
   35  C  9  Y   -0.099221
   36  C  9  Z   -0.189516
   37  C 10  S   -0.171075
   38  C 10  X    0.007838
   39  C 10  Y    0.149220
   40  C 10  Z    0.277518
   41  C 11  S    0.070150
   42  C 11  X   -0.047830
   43  C 11  Y   -0.122714
   44  C 11  Z   -0.109533
   45  C 12  S    0.114947
   46  C 12  X    0.183363
   47  C 12  Y    0.129531
   48  C 12  Z   -0.119423
   49  C 13  S   -0.240462
   50  C 13  X   -0.258014
   51  C 13  Y   -0.104454
   52  C 13  Z    0.204782
   53  C 14  S    0.146513
   54  C 14  X    0.226766
   55  C 14  Y    0.052945
   56  C 14  Z   -0.083803
   57  C 15  S   -0.085913
   58  C 15  X    0.057621
   59  C 15  Y   -0.115913
   60  C 15  Z    0.133480
   61  C 16  S    0.094852
   62  C 16  X    0.048095
   63  C 16  Y   -0.061672
   64  C 16  Z    0.008175
   65  C 17  S   -0.072676
   66  C 17  X   -0.051718
   67  C 17  Y    0.095671
   68  C 17  Z    0.005716
   69  C 18  S   -0.059352
   70  C 18  X   -0.037950
   71  C 18  Y    0.008680
   72  C 18  Z    0.005052
   73  C 19  S   -0.084287
   74  C 19  X   -0.089156
   75  C 19  Y    0.049905
   76  C 19  Z    0.036255
   77  C 20  S   -0.020618
   78  C 20  X    0.037371
   79  C 20  Y   -0.012240
   80  C 20  Z    0.030165
   81  C 21  S    0.084639
   82  C 21  X   -0.057500
   83  C 21  Y   -0.155799
   84  C 21  Z   -0.136135
   85  C 22  S   -0.027495
   86  C 22  X   -0.024939
   87  C 22  Y   -0.077430
   88  C 22  Z    0.036610
   89  C 23  S    0.152589
   90  C 23  X    0.195099
   91  C 23  Y    0.131212
   92  C 23  Z   -0.059233
   93  C 24  S   -0.009517
   94  C 24  X   -0.034257
   95  C 24  Y   -0.059259
   96  C 24  Z   -0.035805
   97  C 25  S    0.081932
   98  C 25  X    0.023534
   99  C 25  Y    0.090951
  100  C 25  Z    0.032215
  101  C 26  S   -0.083489
  102  C 26  X   -0.084277
  103  C 26  Y   -0.111089
  104  C 26  Z   -0.046421
  105  C 27  S   -0.016919
  106  C 27  X    0.013889
  107  C 27  Y   -0.028443
  108  C 27  Z   -0.021552
  109  C 28  S    0.034681
  110  C 28  X   -0.018504
  111  C 28  Y   -0.021199
  112  C 28  Z    0.012227

     ----------------------------------------------------------------
     PROPERTY VALUES FOR THE RHF   SELF-CONSISTENT FIELD WAVEFUNCTION
     ----------------------------------------------------------------

                    -------------
                    MOPAC CHARGES
                    -------------
         ATOM NO.   TYPE          CHARGE        ATOM  ELECTRON DENSITY
           1         C              0.0173          3.9827
           2         C              0.0610          3.9390
           3         C             -0.0424          4.0424
           4         C              0.0269          3.9731
           5         C             -0.0856          4.0856
           6         C              0.0316          3.9684
           7         C              0.0168          3.9832
           8         C              0.0671          3.9329
           9         C              0.0405          3.9595
          10         C             -0.0164          4.0164
          11         C             -0.0200          4.0200
          12         C             -0.0147          4.0147
          13         C             -0.0077          4.0077
          14         C              0.1045          3.8955
          15         C             -0.0221          4.0221
          16         C              0.0129          3.9871
          17         C             -0.0274          4.0274
          18         C             -0.0174          4.0174
          19         C             -0.0402          4.0402
          20         C              0.0052          3.9948
          21         C             -0.0227          4.0227
          22         C              0.0432          3.9568
          23         C             -0.0646          4.0646
          24         C             -0.0349          4.0349
          25         C              0.0309          3.9691
          26         C              0.0137          3.9863
          27         C             -0.0402          4.0402
          28         C             -0.0155          4.0155

          ---------------------
          ELECTROSTATIC MOMENTS
          ---------------------

 POINT   1           X           Y           Z (ANGS)      CHARGE
                 0.000000    0.000000    0.000000        0.00 (A.U.)
         DX          DY          DZ         /D/  (DEBYE)
    -0.216274   -0.358318    0.848703    0.946289
 ...... END OF PROPERTY EVALUATION ......
 CPU     0: STEP CPU TIME=     0.05 TOTAL CPU TIME=          0.9 (      0.0 MIN)
 TOTAL WALL CLOCK TIME=          0.9 SECONDS, CPU UTILIZATION IS    97.88%
  $VIB   
          IVIB=   0 IATOM=   0 ICOORD=   0 E=     -120.7943822015
 -5.725200403E-04-2.008467406E-04-7.125947456E-05 5.530369698E-04-2.380332380E-04
 -2.092639925E-04-2.302858138E-04 5.442880431E-04 9.674773666E-04-9.638831653E-05
  1.734860393E-04-4.503768727E-04-4.187641863E-05 2.245407909E-04-3.221422151E-04
 -1.624689102E-05-9.448132248E-05-3.951091460E-05 2.979759113E-05 4.160572408E-04
  2.030080723E-05-7.289775378E-04-2.566029282E-04 1.209301912E-04 3.708528241E-06
  5.594072432E-06-2.176628220E-04-6.382706615E-05-3.398342807E-04-6.409347764E-04
 -2.402577765E-05-3.060148784E-04 7.060653400E-05 3.415817018E-04 3.237185292E-04
 -2.784430183E-04-1.273206569E-04-1.499497380E-04-3.245170519E-04 4.987617376E-04
  2.872164404E-04 1.706475812E-04-3.437164848E-04 2.199287430E-04-8.643729383E-07
  8.021616355E-05 6.446223246E-05 3.686552558E-04 4.013198284E-04-2.019010256E-04
 -1.113631560E-04-2.340160324E-04-5.276523269E-04 1.160423475E-04 4.160196748E-04
 -1.179904325E-04-1.671796817E-04-4.325991043E-04-4.714702153E-04-5.722642683E-05
 -1.848829124E-04-2.091246257E-04 4.377101783E-04 1.028309388E-04-1.404570775E-04
  3.087911536E-04 2.135703118E-04 1.255068136E-04-1.243440674E-04-1.148323641E-04
  3.047236113E-04-6.450769821E-05-2.893685457E-04-7.606719528E-05 1.847089492E-04
  1.030471039E-04 4.849070693E-04-6.387270462E-05 6.309986013E-05 1.158714035E-04
  3.038930652E-04 6.938935525E-04 4.012499584E-05 7.370581596E-05
 -2.162739527E-01-3.583178266E-01 8.487033072E-01
 ......END OF GEOMETRY SEARCH......
 CPU     0: STEP CPU TIME=     0.00 TOTAL CPU TIME=          0.9 (      0.0 MIN)
 TOTAL WALL CLOCK TIME=          0.9 SECONDS, CPU UTILIZATION IS    96.23%
                580000  WORDS OF DYNAMIC MEMORY USED
 EXECUTION OF GAMESS TERMINATED NORMALLY 21:02:40 22-MAY-2023    
 DDI: 263640 bytes (0.3 MB / 0 MWords) used by master data server.

 ----------------------------------------
 CPU timing information for all processes
 ========================================
 0: 0.671875 + 0.296875 = 0.968750
 1: 0.484375 + 0.156250 = 0.640625
 2: 0.296875 + 0.359375 = 0.656250
 3: 0.234375 + 0.265625 = 0.500000
 ----------------------------------------
           Disk usage (in bytes)       
 ========================================
 ----------------------------------------
            Local date and time          
 ========================================
22.05.2023 - 21:02:40,14                          
