          *******************************************************
          *                                                     *
          *          GAMESS VERSION = 30 SEP 2022 (R2)          *
          *                                                     *
          *              doi.org/10.1063/5.0005188              *
          *                                                     *
          *************** 64 BIT WINDOWS VERSION ****************

  GAMESS HAS BEEN MADE POSSIBLE WITH IMPORTANT CONTRIBUTIONS FROM
  THE FOLLOWING INDIVIDUALS (IN ALPHABETICAL ORDER):

     IVANA ADAMOVIC, CHRISTINE AIKENS, TOMOKO AKAMA,
     MELISA ALKAN, YURI ALEXEEV, YURIKO AOKI, POOJA ARORA,
     TOSHIO ASADA, ANDREY ASADCHEV, KIM K. BALDRIDGE,
     PRADIPTA BANDYOPADHYAY, TAYLOR A. BARNES, MARIA BARYSZ,
     ROB BELL, JONATHAN BENTZ, COLLEEN BERTONI,
     JERRY A. BOATZ, BRETT BODE, KURT BRORSEN, KURT R. BRORSEN,
     LAIMUTIS BYTAUTAS, CALEB CARLIN, LAURA CARRINGTON,
     GALINA CHABAN, BENOIT CHAMPAGNE, WEI CHEN, MAHITO CHIBA,
     DAN CHIPMAN, CHEOL HO CHOI, TANNER CULPITT,
     DIPAYAN DATTA, PAUL DAY, ALBERT DEFUSCO,
     NUWAN DESILVA, J. EMILIANO DEUSTUA,
     TIM DUDLEY, MICHEL DUPUIS, STEVEN T. ELBERT,
     DMITRI FEDOROV, KATHERINE FERRERAS, MICHAEL FILATOV,
     ALEX FINDLATER,GRAHAM FLETCHER, MARK FREITAG,
     CHRISTIAN FRIEDL, DAVID GARMER, 
     IGOR S. GERASIMOV, KURT GLAESEMANN,
     MARK S. GORDON, JEFFREY GOUR, FENG LONG GU,
     EMILIE B. GUIDEZ, ANASTASIA GUNINA, SHARON HAMMES-SCHIFFER,
     MASATAKE HARUTA, KIMIHIKO HIRAO, YASUHIRO IKABATA,
     TZVETELIN IORDANOV, STEPHAN IRLE, KAZUYA ISHIMURA,
     JOE IVANIC, FRANK JENSEN, JAN H. JENSEN, VISVALDAS KAIRYS,
     MUNEAKI KAMIYA, MICHIO KATOUDA, NAOAKI KAWAKAMI, DAN KEMP,
     BERNARD KIRTMAN, KAZUO KITAURA, MARIUSZ KLOBUKOWSKI,
     MASATO KOBAYASHI, KONSTANTIN KOMAROV, PRAKASHAN KORAMBATH,
     JACEK KORCHOWIEC, SHIRO KOSEKI, KAROL KOWALSKI,
     JIMMY KROMANN, STANISLAW KUCHARSKI, HENRY KURTZ,
     SAROM SOK LEANG, SEUNGHOON LEE, HUI LI, SHUHUA LI, WEI LI,
     JESSE LUTZ, ALEKSANDR O. LYKHIN, MARCIN MAKOWSKI,
     JOANI MATO, NIKITA MATSUNAGA, BENEDETTA MENNUCCI,
     GRANT MERRILL, NORIYUKI MINEZAWA, VLADIMIR MIRONOV,
     EISAKU MIYOSHI, JOHN A. MONTGOMERY JR., HIROTOSHI MORI,
     JONATHAN MULLIN, MONIKA MUSIAL, SHIGERU NAGASE,
     TAKESHI NAGATA, HIROMI NAKAI, TAKAHITO NAKAJIMA,
     YUYA NAKAJIMA, HARUYUKI NAKANO, HIROYA NAKATA, SEAN NEDD,
     HEATHER NETZLOFF, KIET A. NGUYEN, YOSHIO NISHIMOTO,
     BOSILJKA NJEGIC, RYAN OLSON, MIKE PAK, ROBERTO PEVERATI,
     BUU PHAM, PIOTR PIECUCH, ANNA POMOGAEVA, DAVID POOLE,
     SPENCER PRUITT, OLIVIER QUINET, LUKE ROSKOP,
     KLAUS RUEDENBERG, ANDREW SAND, TOSAPORN SATTASATHUCHANA,
     NOZOMI SAWADA, MICHAEL W. SCHMIDT, PATRICK E. SCHNEIDER,
     JUNJI SEINO, PRACHI SHARMA, JUN SHEN, JIM SHOEMAKER,
     YINAN SHU, DEJUN SI, JONATHAN SKONE, LYUDMILA SLIPCHENKO,
     TONY SMITH, JIE SONG, MARK SPACKMAN, CASPER STEINMANN,
     WALT STEVENS, PEIFENG SU, SHUJUN SU, CHET SWALINA,
     CHINAMI TAKASHIMA, TETSUYA TAKETSUGU, ZHEN TAO,
     NANDUN THELLAMUREGE, SEIKEN TOKURA, JACOPO TOMASI,
     TSUGUKI TOUMA, TAKAO TSUNEDA, HIROAKI UMEDA,
     JORGE LUIS GALVEZ VALLEJO, YALI WANG, SIMON WEBB,
     AARON WEST, THERESA L. WINDUS, MARTA WLOCH,
     PENG XU, KIYOSHI YAGI, SUSUMU YANAGISAWA, YANG YANG,
     SOOHAENG YOO, TAKESHI YOSHIKAWA, FEDERICO ZAHARIEV,
     TOBY ZENG

  WHO ARE SUPPORTED BY THEIR INSTITUTION/UNIVERSITY/COMPANY/GROUP
  (IN ALPHABETICAL ORDER):

     EP ANALYTICS,
     FACULTES UNIVERSITAIRES NOTRE-DAME DE LA PAIX,
     INSTITUTE FOR MOLECULAR SCIENCE, IOWA STATE UNIVERSITY,
     JACKSON STATE UNIVERSITY, JOHANNES KEPLER UNIVERSITY LINZ,
     KYUNGPOOK NATIONAL UNIVERSITY
     KYUSHU UNIVERSITY, MICHIGAN STATE UNIVERSITY,
     MIE UNIVERSITY, THE MOLECULAR SCIENCES SOFTWARE INSTITUTE,
     MOSCOW STATE UNIVERSITY,
     N. COPERNICUS UNIVERSITY, NAGOYA UNIVERSITY,
     NANJING UNIVERSITY, NAT. INST. OF ADVANCED INDUSTRIAL
     SCIENCE AND TECHNOLOGY, NATIONAL INST. OF STANDARDS AND
     TECHNOLOGY, NESMEYANOV INSTITUTE OF ORGANOELEMENT COMPOUNDS
     OF RUSSIAN ACADEMY OF SCIENCES, OSAKA PREFECTURE UNIVERSITY,
     PENNSYLVANIA STATE UNIVERSITY, TOKYO INSTITUTE OF TECHNOLOGY,
     UNIVERSITY OF AARHUS, UNIVERSITY OF ALBERTA,
     UNIVERSITY OF CALIFORNIA AT SANTA BARBARA,
     UNIVERSITY OF COPENHAGEN, UNIVERSITY OF IOWA,
     UNIVERSITY OF MEMPHIS, UNIVERSITY OF MINNESOTA,
     UNIVERSITY OF NEBRASKA, UNIVERSITY OF NEW ENGLAND,
     UNIVERSITY OF NOTRE DAME, UNIVERSITY OF PISA,
     UNIVERSITY OF SILESIA, UNIVERSITY OF TOKYO,
     UNIVERSITY OF ZURICH, WASEDA UNIVERSITY,
     YALE UNIVERSITY

  GAMESS SOFTWARE MANAGEMENT TEAM FOR THIS RELEASE:
     MARK S. GORDON (TEAM LEAD),
     BRETT BODE (SENIOR ADVISOR),
     GIUSEPPE BARCA,
     COLLEEN BERTONI,
     KRISTOPHER KEIPERT (ADVISOR),
     SAROM S. LEANG (DEVELOPMENT LEAD),
     BUU PHAM,
     JACKSON HAYES (WEBSITE ADMINISTRATOR),
     PENG XU


 PARALLEL VERSION RUNNING ON        2 PROCESSORS IN        2 NODES.

 EXECUTION OF GAMESS BEGUN 21:02:58 22-MAY-2023    

            ECHO OF THE FIRST FEW INPUT CARDS -
 INPUT CARD>! (Energy/Geometry) PM3                                                         
 INPUT CARD> $CONTRL                                                                        
 INPUT CARD>COORD=UNIQUE                                                                    
 INPUT CARD>ICHARG=0                                                                        
 INPUT CARD>MAXIT=200                                                                       
 INPUT CARD>MULT=1                                                                          
 INPUT CARD>RUNTYP=OPTIMIZE                                                                 
 INPUT CARD>SCFTYP=RHF                                                                      
 INPUT CARD>UNITS=ANGS                                                                      
 INPUT CARD>! DFTTYP=PBE                                                                    
 INPUT CARD> $END                                                                           
 INPUT CARD> $DFT                                                                           
 INPUT CARD>METHOD=GRID                                                                     
 INPUT CARD> $END                                                                           
 INPUT CARD> $BASIS                                                                         
 INPUT CARD>! EXTFIL=.T.                                                                    
 INPUT CARD>! GBASIS=GEGSSBAS                                                               
 INPUT CARD>! NGAUSS=6                                                                      
 INPUT CARD>GBASIS=PM3                                                                      
 INPUT CARD>! NDFUNC=1                                                                      
 INPUT CARD>! NPFUNC=1                                                                      
 INPUT CARD> $END                                                                           
 INPUT CARD> $SCF                                                                           
 INPUT CARD>DAMP=.F.                                                                        
 INPUT CARD>DEM=.F.                                                                         
 INPUT CARD>DIIS=.F.                                                                        
 INPUT CARD>DIRSCF=.T.                                                                      
 INPUT CARD>EXTRAP=.T.                                                                      
 INPUT CARD>RSTRCT=.F.                                                                      
 INPUT CARD>SHIFT=.F.                                                                       
 INPUT CARD>SOSCF=.T.                                                                       
 INPUT CARD> $END                                                                           
 INPUT CARD> $STATPT                                                                        
 INPUT CARD>METHOD=QA                                                                       
 INPUT CARD>NSTEP=100                                                                       
 INPUT CARD>OPTTOL=0.001                                                                    
 INPUT CARD> $END                                                                           
 INPUT CARD> $GUESS                                                                         
 INPUT CARD>GUESS=HUCKEL                                                                    
 INPUT CARD> $END                                                                           
 INPUT CARD> $SYSTEM                                                                        
 INPUT CARD>MWORDS=10                                                                       
 INPUT CARD> $END                                                                           
 INPUT CARD> $DATA                                                                          
 INPUT CARD>C30 FULLERENE                                                                   
 INPUT CARD>C1                                                                              
 INPUT CARD>C	6.0	-1.42780	2.12820	0.01080                                                  
 INPUT CARD>C	6.0	-2.35000	1.10180	0.01020                                                  
 INPUT CARD>C	6.0	-0.69920	1.95890	-1.16760                                                 
 INPUT CARD>C	6.0	0.67710	1.96670	-1.13640                                                  
     10000000 WORDS OF MEMORY AVAILABLE

     BASIS OPTIONS
     -------------
     GBASIS=PM3          IGAUSS=       0      POLAR=NONE    
     NDFUNC=       0     NFFUNC=       0     DIFFSP=       F
     NPFUNC=       0      DIFFS=       F     BASNAM=        


     RUN TITLE
     ---------
 C30 FULLERENE                                                                   

 THE POINT GROUP OF THE MOLECULE IS C1      
 THE ORDER OF THE PRINCIPAL AXIS IS     0

 ATOM      ATOMIC                      COORDINATES (BOHR)
           CHARGE         X                   Y                   Z
 C           6.0    -2.6981507653        4.0217148471        0.0204090407
 C           6.0    -4.4408560711        2.0821000933        0.0192752051
 C           6.0    -1.3212964106        3.7017842373       -2.2064440633
 C           6.0     1.2795334663        3.7165241001       -2.1474846124
 C           6.0     2.7212054223        4.0088647104        0.0323143144
 C           6.0    -4.1424683377        0.5973423847       -2.1055326955
 C           6.0    -4.0283288880       -1.8625139335       -1.2715966171
 C           6.0    -2.1091231749       -3.4534742426       -2.0615020800
 C           6.0    -2.1161151611        1.5354023650       -3.4434586948
 C           6.0     0.0028345890        0.0517784921       -4.0423128603
 C           6.0     0.0362827390       -2.5516970012       -3.3924360932
 C           6.0    -1.2504316861       -4.7468027086        0.0124721915
 C           6.0     1.2668723022       -4.7662668862       -0.0444085607
 C           6.0     2.2020976935       -3.5424803366       -2.1421933797
 C           6.0    -2.1716731051       -3.4873003377        2.1006194080
 C           6.0    -4.1197916258       -1.8842457824        1.3762874369
 C           6.0    -4.2214588840        0.6009328641        2.1414374893
 C           6.0    -0.0200310955       -2.5110678925        3.3510510940
 C           6.0    -0.0483769853        0.1028010937        3.9982822448
 C           6.0    -2.1561773520        1.6089127059        3.3975383533
 C           6.0     2.1142254351       -3.4616000643        2.0420379023
 C           6.0     1.2925725756        3.7701923181        2.2483959802
 C           6.0    -1.3127926437        3.8299076593        2.2436716652
 C           6.0     4.1398227213        0.6073579325        2.0883361890
 C           6.0     2.1023201613        1.5584570221        3.4022626683
 C           6.0     4.0124551897       -1.8606242075        1.2561008640
 C           6.0     2.1206505034        1.5191507215       -3.3544526008
 C           6.0     4.2431907328        0.6026336175       -2.1019422161
 C           6.0     4.1143114205       -1.9023871518       -1.3995310665
 C           6.0     4.5037839465        2.1183828322       -0.0179523969

          INTERNUCLEAR DISTANCES (ANGS.)
          ------------------------------

                1 C          2 C          3 C          4 C          5 C     

   1 C       0.0000000    1.3798370 *  1.3957604 *  2.4026556 *  2.8678150 *
   2 C       1.3798370 *  0.0000000    2.2015844 *  3.3505340    3.9247588  
   3 C       1.3957604 *  2.2015844 *  0.0000000    1.3766757 *  2.4507340 *
   4 C       2.4026556 *  3.3505340    1.3766757 *  0.0000000    1.3915857 *
   5 C       2.8678150 *  3.9247588    2.4507340 *  1.3915857 *  0.0000000  
   6 C       2.2657197 *  1.3807723 *  2.2204490 *  3.3101785    4.2108311  
   7 C       3.2647621    2.2071518 *  3.3116257    4.1012516    4.7839931  
   8 C       4.1180654    3.3638860    3.8100543    4.1968548    4.8327138  
   9 C       2.2772394 *  2.2259327 *  1.3855102 *  2.2430668 *  3.4130367  
  10 C       3.3284124    3.3620497    2.2727703 *  2.2853287 *  3.3321640  
  11 C       4.1779669    3.8581566    3.4439490    3.4451907    4.1660299  
  12 C       4.7029198    3.9886335    4.6225755    4.8121401    5.0877030  
  13 C       5.1019447    4.7177673    4.8233833    4.6248043    4.7071173  
  14 C       4.9047148    4.7460056    4.2630082    3.8722000    4.1674437  
  15 C       4.1326596    3.3676387    4.4575723    4.7875862    4.8618298  
  16 C       3.2936699    2.2248404 *  3.8112252    4.5193814    4.8307320  
  17 C       2.2773676 *  1.3743910 *  3.2158261    4.0426745    4.2421070  
  18 C       4.1310666    3.8064590    4.4645307    4.4496748    4.1342906  
  19 C       3.2707547    3.3065743    3.8550710    3.8376403    3.2901389  
  20 C       2.2149941 *  2.1726142 *  3.1962374    3.6276023    3.3831508  
  21 C       4.8281719    4.6673696    4.7674872    4.4202704    4.1063356  
  22 C       2.4222832 *  3.3755884    2.7334753 *  2.3263836 *  1.4009686 *
  23 C       1.3899245 *  2.2318204 *  2.3558801 *  2.6990771 *  2.4362431 *
  24 C       4.1899357    4.7355873    4.0246855    3.1658047    2.2332251 *
  25 C       3.3697039    3.9077496    3.6575525    3.1809639    2.2290909 *
  26 C       4.7673284    4.9791413    4.4707965    3.7477496    3.2455386  
  27 C       3.3831508    3.9156370    2.2406649 *  1.3993411 *  2.2469499 *
  28 C       4.2458590    4.7948556    3.3709535    2.2749485 *  2.2744713 *
  29 C       4.8361374    5.0502488    4.1534070    3.3538135    3.3019059  
  30 C       3.9419979    4.7333799    3.3978049    2.2127428 *  1.3752537 *

                6 C          7 C          8 C          9 C         10 C     

   1 C       2.2657197 *  3.2647621    4.1180654    2.2772394 *  3.3284124  
   2 C       1.3807723 *  2.2071518 *  3.3638860    2.2259327 *  3.3620497  
   3 C       2.2204490 *  3.3116257    3.8100543    1.3855102 *  2.2727703 *
   4 C       3.3101785    4.1012516    4.1968548    2.2430668 *  2.2853287 *
   5 C       4.2108311    4.7839931    4.8327138    3.4130367    3.3321640  
   6 C       0.0000000    1.3757968 *  2.3986121 *  1.3774993 *  2.4383701 *
   7 C       1.3757968 *  0.0000000    1.3838219 *  2.3617781 *  2.7796499 *
   8 C       2.3986121 *  1.3838219 *  0.0000000    2.7394184 *  2.4059108 *
   9 C       1.3774993 *  2.3617781 *  2.7394184 *  0.0000000    1.4050343 *
  10 C       2.4383701 *  2.7796499 *  2.4059108 *  1.4050343 *  0.0000000  
  11 C       2.8514028 *  2.4533516 *  1.4186840 *  2.4445355 *  1.4200837 *
  12 C       3.4052754    2.2253566 *  1.3709081 *  3.8217797    3.3899716  
  13 C       4.1760603    3.2610772    2.1939765 *  4.1905085    3.3798892  
  14 C       4.0089497    3.4456893    2.2822856 *  3.5939336    2.4460304 *
  15 C       3.2732107    2.2111089 *  2.2028214 *  3.9588482    3.9240975  
  16 C       2.2626189 *  1.4020828 *  2.2652039 *  3.3021112    3.7457925  
  17 C       2.2477895 *  2.2297567 *  3.2862240    3.1968951    3.9735889  
  18 C       3.9752100    3.2558787    3.1103816    4.3293314    4.1408089  
  19 C       3.8980904    3.6461082    3.8747468    4.1569019    4.2550720  
  20 C       3.1419236    3.2343327    3.9398338    3.6203711    4.1814174  
  21 C       4.5158255    3.7890061    3.1161208    4.5199447    3.8821968  
  22 C       4.0496183    4.5035975    4.8014814    3.7046432    3.9267321  
  23 C       3.2350056    3.8208984    4.4969580    3.2729317    3.9429471  
  24 C       4.9126629    4.8531098    4.5138801    4.4463102    3.9247760  
  25 C       4.4355325    4.4630968    4.5122543    4.2551784    4.1700922  
  26 C       4.8455116    4.4602914    3.7797254    4.4645199    3.6588897  
  27 C       3.4145750    3.8736314    3.5217016    2.2425112 *  1.4111757 *
  28 C       4.4375013    4.5884417    3.9883798    3.4745028    2.4848295 *
  29 C       4.5804104    4.3094835    3.4120738    3.9178510    2.7854686 *
  30 C       4.7751975    5.0262400    4.7020079    3.9563573    3.3769999  

               11 C         12 C         13 C         14 C         15 C     

   1 C       4.1779669    4.7029198    5.1019447    4.9047148    4.1326596  
   2 C       3.8581566    3.9886335    4.7177673    4.7460056    3.3676387  
   3 C       3.4439490    4.6225755    4.8233833    4.2630082    4.4575723  
   4 C       3.4451907    4.8121401    4.6248043    3.8722000    4.7875862  
   5 C       4.1660299    5.0877030    4.7071173    4.1674437    4.8618298  
   6 C       2.8514028 *  3.4052754    4.1760603    4.0089497    3.2732107  
   7 C       2.4533516 *  2.2253566 *  3.2610772    3.4456893    2.2111089 *
   8 C       1.4186840 *  1.3709081 *  2.1939765 *  2.2822856 *  2.2028214 *
   9 C       2.4445355 *  3.8217797    4.1905085    3.5939336    3.9588482  
  10 C       1.4200837 *  3.3899716    3.3798892    2.4460304 *  3.9240975  
  11 C       0.0000000    2.2493160 *  2.2217858 *  1.4234290 *  3.1717139  
  12 C       2.2493160 *  0.0000000    1.3324798 *  2.2459155 *  1.3794577 *
  13 C       2.2217858 *  1.3324798 *  0.0000000    1.3771833 *  2.2488785 *
  14 C       1.4234290 *  2.2459155 *  1.3771833 *  0.0000000    3.2246994  
  15 C       3.1717139    1.3794577 *  2.2488785 *  3.2246994    0.0000000  
  16 C       3.3659654    2.2629645 *  3.3191088    3.9278975    1.3889876 *
  17 C       4.0540364    3.4277360    4.2237009    4.6368564    2.4201943 *
  18 C       3.5686892    2.2237099 *  2.2619582 *  3.1828770    1.4146139 *
  19 C       4.1558525    3.3821951    3.4205099    3.9620555    2.4248989 *
  20 C       4.3708025    3.8406082    4.2402647    4.6199338    2.7827693 *
  21 C       3.1162779    2.1877368 *  1.3772260 *  2.2151017 *  2.2682526 *
  22 C       4.5325363    4.8501464    4.6774225    4.5392087    4.2563103  
  23 C       4.5616980    4.6897795    4.9012270    4.9057434    3.8994178  
  24 C       3.9902047    4.1677904    3.4163008    3.2993392    3.9812054  
  25 C       4.3421503    4.1831093    3.8371608    3.9871499    3.5663940  
  26 C       3.2576190    3.2437580    2.2245789 *  2.2234538 *  3.4132027  
  27 C       2.4202460 *  4.1654872    3.7861811    2.7545857 *  4.5289166  
  28 C       2.8650563 *  4.2091087    3.4260706    2.4450996 *  4.5992646  
  29 C       2.4263566 *  3.2989829    2.2542003 *  1.3898349 *  3.8985894  
  30 C       3.8581105    4.7402792    4.0258078    3.4235572    4.7470992  

               16 C         17 C         18 C         19 C         20 C     

   1 C       3.2936699    2.2773676 *  4.1310666    3.2707547    2.2149941 *
   2 C       2.2248404 *  1.3743910 *  3.8064590    3.3065743    2.1726142 *
   3 C       3.8112252    3.2158261    4.4645307    3.8550710    3.1962374  
   4 C       4.5193814    4.0426745    4.4496748    3.8376403    3.6276023  
   5 C       4.8307320    4.2421070    4.1342906    3.2901389    3.3831508  
   6 C       2.2626189 *  2.2477895 *  3.9752100    3.8980904    3.1419236  
   7 C       1.4020828 *  2.2297567 *  3.2558787    3.6461082    3.2343327  
   8 C       2.2652039 *  3.2862240    3.1103816    3.8747468    3.9398338  
   9 C       3.3021112    3.1968951    4.3293314    4.1569019    3.6203711  
  10 C       3.7457925    3.9735889    4.1408089    4.2550720    4.1814174  
  11 C       3.3659654    4.0540364    3.5686892    4.1558525    4.3708025  
  12 C       2.2629645 *  3.4277360    2.2237099 *  3.3821951    3.8406082  
  13 C       3.3191088    4.2237009    2.2619582 *  3.4205099    4.2402647  
  14 C       3.9278975    4.6368564    3.1828770    3.9620555    4.6199338  
  15 C       1.3889876 *  2.4201943 *  1.4146139 *  2.4248989 *  2.7827693 *
  16 C       0.0000000    1.3770717 *  2.4307983 *  2.7699601 *  2.3750211 *
  17 C       1.3770717 *  0.0000000    2.8398488 *  2.4313734 *  1.3859192 *
  18 C       2.4307983 *  2.8398488 *  0.0000000    1.4250521 *  2.4559482 *
  19 C       2.7699601 *  2.4313734 *  1.4250521 *  0.0000000    1.4072621 *
  20 C       2.3750211 *  1.3859192 *  2.4559482 *  1.4072621 *  0.0000000  
  21 C       3.4210496    3.9830898    1.4171756 *  2.4370147 *  3.5806113  
  22 C       4.1676506    3.3660078    3.4454684    2.2643597 *  2.2379590 *
  23 C       3.4000677    2.3003737 *  3.4743012    2.2803014 *  1.3976216 *
  24 C       4.5808638    4.4246905    2.8311434 *  2.4504671 *  3.4439943  
  25 C       3.9127444    3.4496802    2.4289196 *  1.4100039 *  2.2536596 *
  26 C       4.3038881    4.5718105    2.4291967 *  2.7933821 *  3.9128880  
  27 C       4.5183844    4.4674058    4.2921775    4.1253240    4.2297352  
  28 C       4.9703837    5.0106287    4.0163589    3.9557592    4.4967238  
  29 C       4.5982413    4.9722992    3.3481204    3.7599577    4.5724139  
  30 C       5.0848123    4.8238064    3.8614315    3.3848685    3.9698954  

               21 C         22 C         23 C         24 C         25 C     

   1 C       4.8281719    2.4222832 *  1.3899245 *  4.1899357    3.3697039  
   2 C       4.6673696    3.3755884    2.2318204 *  4.7355873    3.9077496  
   3 C       4.7674872    2.7334753 *  2.3558801 *  4.0246855    3.6575525  
   4 C       4.4202704    2.3263836 *  2.6990771 *  3.1658047    3.1809639  
   5 C       4.1063356    1.4009686 *  2.4362431 *  2.2332251 *  2.2290909 *
   6 C       4.5158255    4.0496183    3.2350056    4.9126629    4.4355325  
   7 C       3.7890061    4.5035975    3.8208984    4.8531098    4.4630968  
   8 C       3.1161208    4.8014814    4.4969580    4.5138801    4.5122543  
   9 C       4.5199447    3.7046432    3.2729317    4.4463102    4.2551784  
  10 C       3.8821968    3.9267321    3.9429471    3.9247760    4.1700922  
  11 C       3.1162779    4.5325363    4.5616980    3.9902047    4.3421503  
  12 C       2.1877368 *  4.8501464    4.6897795    4.1677904    4.1831093  
  13 C       1.3772260 *  4.6774225    4.9012270    3.4163008    3.8371608  
  14 C       2.2151017 *  4.5392087    4.9057434    3.2993392    3.9871499  
  15 C       2.2682526 *  4.2563103    3.8994178    3.9812054    3.5663940  
  16 C       3.4210496    4.1676506    3.4000677    4.5808638    3.9127444  
  17 C       3.9830898    3.3660078    2.3003737 *  4.4246905    3.4496802  
  18 C       1.4171756 *  3.4454684    3.4743012    2.8311434 *  2.4289196 *
  19 C       2.4370147 *  2.2643597 *  2.2803014 *  2.4504671 *  1.4100039 *
  20 C       3.5806113    2.2379590 *  1.3976216 *  3.4439943    2.2536596 *
  21 C       0.0000000    3.8530688    4.2647614    2.4053773 *  2.7522979 *
  22 C       3.8530688    0.0000000    1.3790644 *  2.2535729 *  1.3879052 *
  23 C       4.2647614    1.3790644 *  0.0000000    3.3526613    2.2553642 *
  24 C       2.4053773 *  2.2535729 *  3.3526613    0.0000000    1.3781394 *
  25 C       2.7522979 *  1.3879052 *  2.2553642 *  1.3781394 *  0.0000000  
  26 C       1.3783109 *  3.3505114    4.1571820    1.3799025 *  2.3632811 *
  27 C       3.8861226    3.2251525    3.6840439    3.1096705    3.5755737  
  28 C       3.2716278    3.2476577    4.1047447    2.2180760 *  3.1659307  
  29 C       2.2622489 *  3.8687070    4.6006656    2.2739042 *  3.3082160  
  30 C       3.3920946    2.2561010 *  3.4244279    1.3852033 *  2.2312473 *

               26 C         27 C         28 C         29 C         30 C     

   1 C       4.7673284    3.3831508    4.2458590    4.8361374    3.9419979  
   2 C       4.9791413    3.9156370    4.7948556    5.0502488    4.7333799  
   3 C       4.4707965    2.2406649 *  3.3709535    4.1534070    3.3978049  
   4 C       3.7477496    1.3993411 *  2.2749485 *  3.3538135    2.2127428 *
   5 C       3.2455386    2.2469499 *  2.2744713 *  3.3019059    1.3752537 *
   6 C       4.8455116    3.4145750    4.4375013    4.5804104    4.7751975  
   7 C       4.4602914    3.8736314    4.5884417    4.3094835    5.0262400  
   8 C       3.7797254    3.5217016    3.9883798    3.4120738    4.7020079  
   9 C       4.4645199    2.2425112 *  3.4745028    3.9178510    3.9563573  
  10 C       3.6588897    1.4111757 *  2.4848295 *  2.7854686 *  3.3769999  
  11 C       3.2576190    2.4202460 *  2.8650563 *  2.4263566 *  3.8581105  
  12 C       3.2437580    4.1654872    4.2091087    3.2989829    4.7402792  
  13 C       2.2245789 *  3.7861811    3.4260706    2.2542003 *  4.0258078  
  14 C       2.2234538 *  2.7545857 *  2.4450996 *  1.3898349 *  3.4235572  
  15 C       3.4132027    4.5289166    4.5992646    3.8985894    4.7470992  
  16 C       4.3038881    4.5183844    4.9703837    4.5982413    5.0848123  
  17 C       4.5718105    4.4674058    5.0106287    4.9722992    4.8238064  
  18 C       2.4291967 *  4.2921775    4.0163589    3.3481204    3.8614315  
  19 C       2.7933821 *  4.1253240    3.9557592    3.7599577    3.3848685  
  20 C       3.9128880    4.2297352    4.4967238    4.5724139    3.9698954  
  21 C       1.3783109 *  3.8861226    3.2716278    2.2622489 *  3.3920946  
  22 C       3.3505114    3.2251525    3.2476577    3.8687070    2.2561010 *
  23 C       4.1571820    3.6840439    4.1047447    4.6006656    3.4244279  
  24 C       1.3799025 *  3.1096705    2.2180760 *  2.2739042 *  1.3852033 *
  25 C       2.3632811 *  3.5755737    3.1659307    3.3082160    2.2312473 *
  26 C       0.0000000    3.1864647    2.2072040 *  1.4065069 *  2.2261395 *
  27 C       3.1864647    0.0000000    1.3914406 *  2.3369826 *  2.1927765 *
  28 C       2.2072040 *  1.3914406 *  0.0000000    1.3784148 *  1.3706016 *
  29 C       1.4065069 *  2.3369826 *  1.3784148 *  0.0000000    2.2592237 *
  30 C       2.2261395 *  2.1927765 *  1.3706016 *  2.2592237 *  0.0000000  

  * ... LESS THAN  3.000


 TOTAL NUMBER OF BASIS SET SHELLS             =   30
 NUMBER OF CARTESIAN GAUSSIAN BASIS FUNCTIONS =  120
 NUMBER OF ELECTRONS                          =  120
 CHARGE OF MOLECULE                           =    0
 SPIN MULTIPLICITY                            =    1
 NUMBER OF OCCUPIED ORBITALS (ALPHA)          =   60
 NUMBER OF OCCUPIED ORBITALS (BETA )          =   60
 TOTAL NUMBER OF ATOMS                        =   30
 THE NUCLEAR REPULSION ENERGY IS     2854.8234101967

 THE PARAMETERS USED IN THIS CALCULATION ARE DESCRIBED IN:

  C: (PM3): J. J. P. STEWART, J. COMP. CHEM. 10, 209 (1989).                    

 THERE ARE   30 HEAVY AND    0 LIGHT ATOMS,
 YIELDING A TOTAL OF     43500 MOPAC 2E- INTEGRALS.

     $CONTRL OPTIONS
     ---------------
 SCFTYP=RHF          RUNTYP=OPTIMIZE     EXETYP=RUN     
 MPLEVL=       0     CITYP =NONE         CCTYP =NONE         VBTYP =NONE    
 DFTTYP=NONE         TDDFT =NONE    
 MULT  =       1     ICHARG=       0     NZVAR =       0     COORD =UNIQUE  
 PP    =NONE         RELWFN=NONE         LOCAL =NONE         NUMGRD=       F
 ISPHER=      -1     NOSYM =       0     MAXIT =     200     UNITS =ANGS    
 PLTORB=       F     MOLPLT=       F     AIMPAC=       F     FRIEND=        
 NPRINT=       7     IREST =       0     GEOM  =INPUT   
 NORMF =       0     NORMP =       0     ITOL  =      20     ICUT  =       9
 INTTYP=BEST         GRDTYP=BEST         QMTTOL= 1.0E-06

     $SYSTEM OPTIONS
     ---------------
  REPLICATED MEMORY=    10000000 WORDS (ON EVERY NODE).
 DISTRIBUTED MEMDDI=           0 MILLION WORDS IN AGGREGATE,
 MEMDDI DISTRIBUTED OVER   2 PROCESSORS IS           0 WORDS/PROCESSOR.
 TOTAL MEMORY REQUESTED ON EACH PROCESSOR=    10000000 WORDS.
 TIMLIM=      525600.00 MINUTES, OR     365.0 DAYS.
 PARALL= T  BALTYP=  DLB     KDIAG=    0  COREFL= F
 MXSEQ2=     300 MXSEQ3=     150  mem10=         0  mem22=         0

          ----------------
          PROPERTIES INPUT
          ----------------

     MOMENTS            FIELD           POTENTIAL          DENSITY
 IEMOM =       1   IEFLD =       0   IEPOT =       0   IEDEN =       0
 WHERE =COMASS     WHERE =NUCLEI     WHERE =NUCLEI     WHERE =NUCLEI  
 OUTPUT=BOTH       OUTPUT=BOTH       OUTPUT=BOTH       OUTPUT=BOTH    
 IEMINT=       0   IEFINT=       0                     IEDINT=       0
                                                       MORB  =       0
          EXTRAPOLATION IN EFFECT
          SOSCF IN EFFECT
 ORBITAL PRINTING OPTION: NPREO=     1   120     2     1

     -------------------------------
     INTEGRAL TRANSFORMATION OPTIONS
     -------------------------------
     NWORD  =            0
     CUTTRF = 1.0E-09     MPTRAN =       0
     DIRTRF =       T     AOINTS =DUP     

          ----------------------
          INTEGRAL INPUT OPTIONS
          ----------------------
 NOPK  =       1 NORDER=       0 SCHWRZ=       T

     ------------------------------------------
     THE POINT GROUP IS C1 , NAXIS= 0, ORDER= 1
     ------------------------------------------

     DIMENSIONS OF THE SYMMETRY SUBSPACES ARE
 A   =  120

 ..... DONE SETTING UP THE RUN .....
 CPU     0: STEP CPU TIME=     0.03 TOTAL CPU TIME=          0.0 (      0.0 MIN)
 TOTAL WALL CLOCK TIME=          0.0 SECONDS, CPU UTILIZATION IS    86.81%


          -----------------------------
          STATIONARY POINT LOCATION RUN
          -----------------------------

 OBTAINING INITIAL HESSIAN, HESS=GUESS   
 CARTESIAN COORDINATE OPTIMIZATION USING BADGER'S RULE FORCE CONSTANT GUESS

          PARAMETERS CONTROLLING GEOMETRY SEARCH ARE
          METHOD =QA                  UPHESS =BFGS    
          NNEG   =         0          NFRZ   =         0
          NSTEP  =       100          IFOLOW =         1
          HESS   =GUESS               RESTAR =         F
          IHREP  =         0          HSSEND =         F
          NPRT   =         0          NPUN   =         0
          OPTTOL = 1.000E-03          RMIN   = 1.500E-03
          RMAX   = 1.000E-01          RLIM   = 7.000E-02
          DXMAX  = 3.000E-01          PURIFY =         F
          MOVIE  =         F          TRUPD  =         T
          TRMAX  = 5.000E-01          TRMIN  = 5.000E-02
          ITBMAT =         5          STPT   =         F
          STSTEP = 1.000E-02          PROJCT=          T

 BEGINNING GEOMETRY SEARCH POINT NSERCH=   0 ...

 COORDINATES OF ALL ATOMS ARE (ANGS)
   ATOM   CHARGE       X              Y              Z
 ------------------------------------------------------------
 C           6.0  -1.4278000000   2.1282000000   0.0108000000
 C           6.0  -2.3500000000   1.1018000000   0.0102000000
 C           6.0  -0.6992000000   1.9589000000  -1.1676000000
 C           6.0   0.6771000000   1.9667000000  -1.1364000000
 C           6.0   1.4400000000   2.1214000000   0.0171000000
 C           6.0  -2.1921000000   0.3161000000  -1.1142000000
 C           6.0  -2.1317000000  -0.9856000000  -0.6729000000
 C           6.0  -1.1161000000  -1.8275000000  -1.0909000000
 C           6.0  -1.1198000000   0.8125000000  -1.8222000000
 C           6.0   0.0015000000   0.0274000000  -2.1391000000
 C           6.0   0.0192000000  -1.3503000000  -1.7952000000
 C           6.0  -0.6617000000  -2.5119000000   0.0066000000
 C           6.0   0.6704000000  -2.5222000000  -0.0235000000
 C           6.0   1.1653000000  -1.8746000000  -1.1336000000
 C           6.0  -1.1492000000  -1.8454000000   1.1116000000
 C           6.0  -2.1801000000  -0.9971000000   0.7283000000
 C           6.0  -2.2339000000   0.3180000000   1.1332000000
 C           6.0  -0.0106000000  -1.3288000000   1.7733000000
 C           6.0  -0.0256000000   0.0544000000   2.1158000000
 C           6.0  -1.1410000000   0.8514000000   1.7979000000
 C           6.0   1.1188000000  -1.8318000000   1.0806000000
 C           6.0   0.6840000000   1.9951000000   1.1898000000
 C           6.0  -0.6947000000   2.0267000000   1.1873000000
 C           6.0   2.1907000000   0.3214000000   1.1051000000
 C           6.0   1.1125000000   0.8247000000   1.8004000000
 C           6.0   2.1233000000  -0.9846000000   0.6647000000
 C           6.0   1.1222000000   0.8039000000  -1.7751000000
 C           6.0   2.2454000000   0.3189000000  -1.1123000000
 C           6.0   2.1772000000  -1.0067000000  -0.7406000000
 C           6.0   2.3833000000   1.1210000000  -0.0095000000

          ********************
          1 ELECTRON INTEGRALS
          ********************

          **************************
          1 AND 2 ELECTRON INTEGRALS
          **************************

 MOPAC ONE- AND TWO-ELECTRON INTEGRALS REQUIRE     58020 WORDS.
 ...... END OF ONE- AND TWO-ELECTRON INTEGRALS......
 CPU     0: STEP CPU TIME=     0.00 TOTAL CPU TIME=          0.0 (      0.0 MIN)
 TOTAL WALL CLOCK TIME=          0.0 SECONDS, CPU UTILIZATION IS    74.40%
 ...... END OF ONE-ELECTRON INTEGRALS ......
 CPU     0: STEP CPU TIME=     0.00 TOTAL CPU TIME=          0.0 (      0.0 MIN)
 TOTAL WALL CLOCK TIME=          0.0 SECONDS, CPU UTILIZATION IS    74.40%

          -------------
          GUESS OPTIONS
          -------------
          GUESS =HUCKEL            NORB  =       0          NORDER=       0
          MIX   =       F          PRTMO =       F          PUNMO =       F
          TOLZ  = 1.0E-08          TOLE  = 1.0E-05
          SYMDEN=       F          PURIFY=       F

 INITIAL GUESS ORBITALS GENERATED BY HUCKEL   ROUTINE.

 SYMMETRIES FOR INITIAL GUESS ORBITALS FOLLOW.   BOTH SET(S).
    60 ORBITALS ARE OCCUPIED (    0 CORE ORBITALS).
     1=A        2=A        3=A        4=A        5=A        6=A        7=A   
     8=A        9=A       10=A       11=A       12=A       13=A       14=A   
    15=A       16=A       17=A       18=A       19=A       20=A       21=A   
    22=A       23=A       24=A       25=A       26=A       27=A       28=A   
    29=A       30=A       31=A       32=A       33=A       34=A       35=A   
    36=A       37=A       38=A       39=A       40=A       41=A       42=A   
    43=A       44=A       45=A       46=A       47=A       48=A       49=A   
    50=A       51=A       52=A       53=A       54=A       55=A       56=A   
    57=A       58=A       59=A       60=A       61=A       62=A       63=A   
    64=A       65=A       66=A       67=A       68=A       69=A       70=A   
 ...... END OF INITIAL ORBITAL SELECTION ......
 CPU     0: STEP CPU TIME=     0.02 TOTAL CPU TIME=          0.0 (      0.0 MIN)
 TOTAL WALL CLOCK TIME=          0.1 SECONDS, CPU UTILIZATION IS    88.44%

          --------------------------
               R-PM3 SCF CALCULATION
          --------------------------

     NUCLEAR ENERGY =      1129.4455101361
     MAXIT =  200     NPUNCH=    2
     EXTRAP=T  DAMP=F  SHIFT=F  RSTRCT=F  DIIS=F  DEM=F  SOSCF=T
     DENSITY MATRIX CONV=  2.00E-05
     SOSCF WILL OPTIMIZE    3600 ORBITAL ROTATIONS, SOGTOL=   0.250
     MEMORY REQUIRED FOR RHF ITERS=    160860 WORDS.

                                                                                   NONZERO     BLOCKS
 ITER EX DEM     TOTAL ENERGY        E CHANGE  DENSITY CHANGE     ORB. GRAD      INTEGRALS    SKIPPED
   1  0  0     -128.1886595772  -128.1886595772   0.176421263   0.000000000              0          0
          ---------------START SECOND ORDER SCF---------------
   2  1  0     -129.1248054574    -0.9361458803   0.055351937   0.021891821              0          0
   3  2  0     -129.2009475715    -0.0761421140   0.031762757   0.021954844              0          0
   4  3  0     -129.2146027262    -0.0136551548   0.009272629   0.006797210              0          0
   5  4  0     -129.2168437217    -0.0022409955   0.012354718   0.003190786              0          0
   6  5  0     -129.2178571942    -0.0010134726   0.025170633   0.002714106              0          0
   7  6  0     -129.2185910885    -0.0007338942   0.011840373   0.001800232              0          0
   8  7  0     -129.2189302538    -0.0003391654   0.012126187   0.001166283              0          0
   9  8  0     -129.2191612175    -0.0002309637   0.016649486   0.001653147              0          0
  10  9  0     -129.2193296208    -0.0001684033   0.010003785   0.001277412              0          0
  11 10  0     -129.2193948788    -0.0000652580   0.005031661   0.000543544              0          0
  12 11  0     -129.2194204183    -0.0000255394   0.001251826   0.000188457              0          0
  13 12  0     -129.2194261043    -0.0000056860   0.000697805   0.000111297              0          0
  14 13  0     -129.2194280818    -0.0000019776   0.000569010   0.000087726              0          0
  15 14  0     -129.2194290728    -0.0000009910   0.000742480   0.000068101              0          0
  16 15  0     -129.2194300318    -0.0000009590   0.000967137   0.000077723              0          0
  17 16  0     -129.2194308938    -0.0000008620   0.000783891   0.000054471              0          0
  18 17  0     -129.2194314124    -0.0000005185   0.000286945   0.000037948              0          0
  19 18  0     -129.2194315922    -0.0000001798   0.000118098   0.000017435              0          0
  20 19  0     -129.2194316473    -0.0000000551   0.000079852   0.000012200              0          0
  21 20  0     -129.2194316719    -0.0000000246   0.000093706   0.000007128              0          0
  22 21  0     -129.2194316843    -0.0000000124   0.000089051   0.000005820              0          0
  23 22  0     -129.2194316904    -0.0000000061   0.000083870   0.000004657              0          0
  24 23  0     -129.2194316944    -0.0000000040   0.000080606   0.000003933              0          0
  25 24  0     -129.2194316974    -0.0000000030   0.000062869   0.000002529              0          0
  26 25  0     -129.2194316993    -0.0000000019   0.000038323   0.000001754              0          0
  27 26  0     -129.2194317005    -0.0000000012   0.000025563   0.000001598              0          0

          ----------------
          ENERGY CONVERGED
          ----------------
     TIME TO FORM FOCK OPERATORS=       0.0 SECONDS (       0.0 SEC/ITER)
     FOCK TIME ON FIRST ITERATION=       0.0, LAST ITERATION=       0.0
     TIME TO SOLVE SCF EQUATIONS=       0.1 SECONDS (       0.0 SEC/ITER)

 FINAL R-PM3 ENERGY IS     -129.2194317005 AFTER  27 ITERATIONS

 HEAT OF FORMATION IS       990.09357 KCAL/MOL
 

          ------------
          EIGENVECTORS
          ------------

                      1          2          3          4          5
                   -1.9586    -1.7100    -1.6996    -1.5820    -1.3681
                     A          A          A          A          A   
    1  C  1  S    0.180328   0.212122  -0.169528   0.003078  -0.259780
    2  C  1  X    0.021214  -0.012768  -0.039838  -0.000554  -0.004742
    3  C  1  Y   -0.054517  -0.077216   0.031612  -0.002136   0.061950
    4  C  1  Z    0.000582   0.001050  -0.001665  -0.080112  -0.006245
    5  C  2  S    0.192111   0.299815  -0.073743   0.004115  -0.141719
    6  C  2  X    0.053615   0.067880  -0.037789   0.001849  -0.070356
    7  C  2  Y   -0.025045  -0.044053  -0.033617   0.000168  -0.083660
    8  C  2  Z    0.000536   0.001617  -0.000722  -0.074146  -0.003696
    9  C  3  S    0.182791   0.127516  -0.184194   0.205923  -0.152644
   10  C  3  X    0.007746  -0.053118  -0.026432   0.024359   0.060260
   11  C  3  Y   -0.044762  -0.035258   0.024474  -0.073119   0.023486
   12  C  3  Z    0.026473   0.029297  -0.034223  -0.035011  -0.041274
   13  C  4  S    0.179948  -0.054705  -0.220035   0.193833   0.088911
   14  C  4  X   -0.009377  -0.060221   0.004525  -0.028910   0.089710
   15  C  4  Y   -0.043420   0.024411   0.036114  -0.068665  -0.024913
   16  C  4  Z    0.024956  -0.015131  -0.041689  -0.037864   0.030311
   17  C  5  S    0.173691  -0.140448  -0.234966  -0.004227   0.223906
   18  C  5  X   -0.021919  -0.024928   0.032580   0.000497   0.031798
   19  C  5  Y   -0.051870   0.061223   0.057637   0.000786  -0.074083
   20  C  5  Z   -0.000216   0.001344  -0.000590  -0.075148  -0.004707
   21  C  6  S    0.182682   0.257189  -0.001690   0.151148   0.015276
   22  C  6  X    0.042340   0.038132  -0.009181   0.060353  -0.018909
   23  C  6  Y    0.001927   0.011106  -0.052155   0.009600  -0.107634
   24  C  6  Z    0.037652   0.068834   0.003711  -0.024069   0.016139
   25  C  7  S    0.179314   0.205016   0.155785   0.072876   0.280472
   26  C  7  X    0.039400   0.016551   0.050576   0.026746   0.048767
   27  C  7  Y    0.022769   0.057440  -0.036398   0.020327  -0.035377
   28  C  7  Z    0.024573   0.035556   0.028754  -0.043140   0.062965
   29  C  8  S    0.172578   0.060396   0.251938   0.109024   0.188415
   30  C  8  X    0.021921  -0.039860   0.043338   0.024146  -0.070563
   31  C  8  Y    0.027835   0.032722   0.004979   0.036842   0.034798
   32  C  8  Z    0.036142   0.018396   0.069229  -0.023450   0.074754
   33  C  9  S    0.180015   0.153203  -0.081177   0.285491  -0.085438
   34  C  9  X    0.016913  -0.035989  -0.023257   0.056948   0.004479
   35  C  9  Y   -0.005367   0.000472  -0.041468  -0.012416  -0.049353
   36  C  9  Z    0.048061   0.059787  -0.025270   0.038285  -0.034719
   37  C 10  S    0.164178  -0.000756  -0.018412   0.304317  -0.020022
   38  C 10  X   -0.001261  -0.051924  -0.009539  -0.003599  -0.001785
   39  C 10  Y    0.009526   0.012369  -0.060827   0.033247  -0.000894
   40  C 10  Z    0.043659  -0.000420  -0.003632   0.061130  -0.002904
   41  C 11  S    0.160150  -0.039905   0.164843   0.199858  -0.038046
   42  C 11  X   -0.000525  -0.046041  -0.008942  -0.001538  -0.069249
   43  C 11  Y    0.014621   0.007148  -0.036694   0.051646   0.007856
   44  C 11  Z    0.042385  -0.014567   0.065714   0.018797  -0.010578
   45  C 12  S    0.176164  -0.003491   0.319984  -0.008041   0.110781
   46  C 12  X    0.017611  -0.047601   0.037644  -0.000535  -0.112390
   47  C 12  Y    0.053503   0.012314   0.082199  -0.002099   0.056712
   48  C 12  Z   -0.000587   0.001114  -0.001633  -0.048137   0.005410
   49  C 13  S    0.174186  -0.125514   0.293590  -0.003518  -0.197987
   50  C 13  X   -0.018163  -0.028194  -0.053025   0.001612  -0.078660
   51  C 13  Y    0.053003  -0.044533   0.070891  -0.000688  -0.065979
   52  C 13  Z    0.000263   0.000792   0.000567  -0.047552   0.005498
   53  C 14  S    0.165059  -0.159043   0.201552   0.106825  -0.236782
   54  C 14  X   -0.022866  -0.015461  -0.054865  -0.024004  -0.023274
   55  C 14  Y    0.028658  -0.035281  -0.003375   0.035579  -0.021081
   56  C 14  Z    0.035647  -0.043922   0.055715  -0.018949  -0.076282
   57  C 15  S    0.169752   0.065340   0.247316  -0.118029   0.208051
   58  C 15  X    0.021990  -0.037682   0.043311  -0.026052  -0.062201
   59  C 15  Y    0.029108   0.033579   0.008084  -0.036118   0.038068
   60  C 15  Z   -0.036028  -0.017937  -0.068559  -0.017942  -0.072238
   61  C 16  S    0.174440   0.203356   0.151072  -0.078367   0.281204
   62  C 16  X    0.040788   0.020883   0.051036  -0.029057   0.056001
   63  C 16  Y    0.023167   0.057176  -0.033735  -0.016437  -0.033862
   64  C 16  Z   -0.025323  -0.035578  -0.029269  -0.037308  -0.061431
   65  C 17  S    0.179942   0.258653  -0.002538  -0.140215   0.011193
   66  C 17  X    0.042771   0.041432  -0.009691  -0.056581  -0.021223
   67  C 17  Y    0.001742   0.010695  -0.051661  -0.006524  -0.112226
   68  C 17  Z   -0.038049  -0.068834  -0.003767  -0.022608  -0.016411
   69  C 18  S    0.161132  -0.031733   0.162368  -0.205526  -0.011324
   70  C 18  X   -0.001127  -0.046606  -0.010535   0.001249  -0.069417
   71  C 18  Y    0.013946   0.007622  -0.039251  -0.048465   0.002437
   72  C 18  Z   -0.042468   0.013228  -0.065631   0.021244   0.004139
   73  C 19  S    0.165297   0.006727  -0.027516  -0.302416  -0.024065
   74  C 19  X   -0.000732  -0.052968  -0.010773   0.000005   0.000912
   75  C 19  Y    0.010096   0.012225  -0.062979  -0.031878  -0.013157
   76  C 19  Z   -0.042856  -0.001332   0.005036   0.058295   0.003584
   77  C 20  S    0.180947   0.161204  -0.090119  -0.272762  -0.109424
   78  C 20  X    0.016658  -0.036065  -0.025804  -0.057353   0.000669
   79  C 20  Y   -0.005703  -0.001254  -0.041819   0.014227  -0.055925
   80  C 20  Z   -0.046878  -0.060073   0.025949   0.031145   0.039339
   81  C 21  S    0.169781  -0.157236   0.204825  -0.114736  -0.218146
   82  C 21  X   -0.022319  -0.019170  -0.054701   0.026324  -0.033705
   83  C 21  Y    0.027327  -0.033035  -0.008251  -0.035445  -0.015372
   84  C 21  Z   -0.035782   0.044559  -0.056714  -0.019951   0.078402
   85  C 22  S    0.177193  -0.050937  -0.222652  -0.197036   0.069106
   86  C 22  X   -0.010081  -0.057843   0.006433   0.026834   0.090954
   87  C 22  Y   -0.043863   0.023777   0.039149   0.069470  -0.021599
   88  C 22  Z   -0.025570   0.015348   0.041247  -0.032788  -0.032521
   89  C 23  S    0.178529   0.125606  -0.188494  -0.193887  -0.173257
   90  C 23  X    0.007863  -0.051188  -0.026704  -0.025861   0.058442
   91  C 23  Y   -0.046029  -0.036761   0.029907   0.070253   0.033283
   92  C 23  Z   -0.026588  -0.028707   0.033418  -0.032873   0.038519
   93  C 24  S    0.174877  -0.240120  -0.105356  -0.138244   0.088215
   94  C 24  X   -0.040317   0.031987   0.023793   0.056223  -0.012630
   95  C 24  Y    0.001704   0.008847  -0.051793  -0.006900   0.090722
   96  C 24  Z   -0.035706   0.065226   0.023195  -0.024159  -0.025575
   97  C 25  S    0.176243  -0.115628  -0.142908  -0.271605   0.069323
   98  C 25  X   -0.017938  -0.041992   0.009557   0.057880   0.042694
   99  C 25  Y   -0.004334   0.014967  -0.039113   0.011353   0.031676
  100  C 25  Z   -0.045405   0.046556   0.046445   0.032452  -0.043243
  101  C 26  S    0.174226  -0.252995   0.060881  -0.072327  -0.184228
  102  C 26  X   -0.038410   0.034968  -0.039556   0.027824   0.058295
  103  C 26  Y    0.020621  -0.038345  -0.056844  -0.016240   0.077255
  104  C 26  Z   -0.023809   0.044421  -0.012915  -0.041188   0.040540
  105  C 27  S    0.177634  -0.123006  -0.134775   0.270158   0.080776
  106  C 27  X   -0.017325  -0.043627   0.007700  -0.059715   0.037770
  107  C 27  Y   -0.005026   0.015960  -0.039449  -0.012244   0.038471
  108  C 27  Z    0.044341  -0.047189  -0.044928   0.028162   0.045086
  109  C 28  S    0.172612  -0.243995  -0.099661   0.133027   0.086586
  110  C 28  X   -0.041515   0.036868   0.023520  -0.054265  -0.015765
  111  C 28  Y    0.000348   0.010386  -0.049613   0.005192   0.093931
  112  C 28  Z    0.035688  -0.064487  -0.024158  -0.022132   0.026100
  113  C 29  S    0.168914  -0.249158   0.060702   0.074043  -0.188096
  114  C 29  X   -0.039746   0.039403  -0.039209  -0.026777   0.063052
  115  C 29  Y    0.021403  -0.039962  -0.053099   0.017677   0.073169
  116  C 29  Z    0.024458  -0.044414   0.011862  -0.036158  -0.037520
  117  C 30  S    0.179551  -0.249803  -0.180111   0.000456   0.233060
  118  C 30  X   -0.052460   0.053042   0.061495   0.000296  -0.069668
  119  C 30  Y   -0.024593   0.053558  -0.010353  -0.000791   0.030254
  120  C 30  Z   -0.000175   0.001262  -0.000995  -0.066332  -0.001284

                      6          7          8          9         10
                   -1.3588    -1.2756    -1.2568    -1.2421    -1.0805
                     A          A          A          A          A   
    1  C  1  S   -0.025235   0.006860  -0.038327  -0.250979   0.265139
    2  C  1  X   -0.089451   0.000425  -0.009760  -0.027628   0.027213
    3  C  1  Y   -0.043809  -0.002925   0.000721   0.031118  -0.026356
    4  C  1  Z    0.001952  -0.105243  -0.093294   0.015507   0.005692
    5  C  2  S    0.248044  -0.001353  -0.007040  -0.148821  -0.070644
    6  C  2  X    0.007010   0.003371  -0.004412  -0.041592   0.077299
    7  C  2  Y   -0.092427   0.005713  -0.011320  -0.043648   0.180673
    8  C  2  Z    0.006981  -0.067451  -0.146444   0.022385  -0.010278
    9  C  3  S   -0.160757   0.233365   0.059838  -0.106043   0.126115
   10  C  3  X   -0.082160   0.021041  -0.082943   0.034488  -0.090303
   11  C  3  Y    0.006639  -0.055241  -0.050106  -0.052686  -0.006066
   12  C  3  Z   -0.007267  -0.029473  -0.021377  -0.110554   0.053005
   13  C  4  S   -0.207401   0.181704  -0.175971  -0.081375  -0.162095
   14  C  4  X    0.053450  -0.050729  -0.064599  -0.015079  -0.075581
   15  C  4  Y    0.014506  -0.037697   0.049580  -0.062481   0.010316
   16  C  4  Z   -0.022989  -0.032309   0.002752  -0.110843  -0.048469
   17  C  5  S   -0.128375  -0.014608  -0.034543  -0.246174  -0.264488
   18  C  5  X    0.082866  -0.000715   0.008942   0.028021   0.035113
   19  C  5  Y   -0.014542   0.002729   0.001589   0.030161   0.022767
   20  C  5  Z   -0.005861  -0.069163   0.121839  -0.010545   0.000767
   21  C  6  S    0.208393   0.041154   0.286116  -0.017563  -0.148755
   22  C  6  X   -0.016932   0.020733   0.077968   0.029978   0.046554
   23  C  6  Y   -0.012866   0.066193  -0.000784  -0.047359   0.064029
   24  C  6  Z    0.094434  -0.007529  -0.034543  -0.050947  -0.088668
   25  C  7  S    0.144868  -0.085943   0.152239  -0.014123  -0.047625
   26  C  7  X   -0.037788  -0.039089   0.035329   0.004468   0.086793
   27  C  7  Y    0.096811   0.021798   0.050073   0.021510  -0.161924
   28  C  7  Z    0.043311   0.033834  -0.083777  -0.027110  -0.025160
   29  C  8  S   -0.120722  -0.249041   0.120308  -0.052499   0.192171
   30  C  8  X   -0.068486  -0.074466  -0.015533  -0.008499  -0.023036
   31  C  8  Y    0.031066  -0.026298   0.056901   0.059841  -0.020852
   32  C  8  Z   -0.021023   0.029472  -0.028777  -0.072155   0.076966
   33  C  9  S   -0.051447   0.161473   0.257518   0.151044   0.043221
   34  C  9  X   -0.087853   0.026277  -0.067008   0.095658   0.002695
   35  C  9  Y   -0.024714   0.081502  -0.043422  -0.077523   0.046212
   36  C  9  Z    0.023373   0.039802   0.055975  -0.045585   0.015168
   37  C 10  S   -0.117462  -0.048105   0.039351   0.363558  -0.004409
   38  C 10  X    0.006083  -0.018281  -0.121050   0.013928  -0.011588
   39  C 10  Y   -0.027149   0.137791  -0.021535   0.012136  -0.006853
   40  C 10  Z   -0.018699  -0.008366   0.004880   0.045677  -0.000335
   41  C 11  S   -0.117060  -0.337027   0.057619   0.157205  -0.005597
   42  C 11  X    0.021426  -0.006900  -0.075524   0.009415  -0.063294
   43  C 11  Y    0.013643   0.023289   0.010477   0.118234   0.005832
   44  C 11  Z   -0.030101  -0.065946   0.004052  -0.039723  -0.002551
   45  C 12  S   -0.210761  -0.003729  -0.037053  -0.208989   0.186724
   46  C 12  X   -0.045806   0.005290  -0.005890  -0.042081  -0.116355
   47  C 12  Y   -0.033621  -0.001578  -0.004372  -0.022132   0.061209
   48  C 12  Z    0.004751   0.152780  -0.042523   0.005791   0.002103
   49  C 13  S   -0.135460   0.000378  -0.029202  -0.204714  -0.197354
   50  C 13  X    0.091847   0.002625   0.009902   0.044656  -0.110817
   51  C 13  Y   -0.004530   0.001934  -0.001809  -0.021292  -0.059158
   52  C 13  Z    0.000653   0.157576  -0.001409  -0.004552   0.006523
   53  C 14  S   -0.005818  -0.256355  -0.063097  -0.020681  -0.194911
   54  C 14  X    0.090888   0.073982  -0.023722   0.016425  -0.004595
   55  C 14  Y    0.045053  -0.038465  -0.028511   0.067206   0.027485
   56  C 14  Z    0.013937   0.033011   0.001765  -0.070311  -0.077353
   57  C 15  S   -0.099236   0.231630  -0.143219  -0.021203   0.182999
   58  C 15  X   -0.068371   0.084185   0.005240  -0.014364  -0.005565
   59  C 15  Y    0.034763   0.026642  -0.037460   0.069364  -0.029490
   60  C 15  Z    0.022941   0.034964  -0.007850   0.073639  -0.075960
   61  C 16  S    0.160730   0.052804  -0.139369   0.026970  -0.082913
   62  C 16  X   -0.027997   0.037478  -0.037778   0.013871   0.077837
   63  C 16  Y    0.098667  -0.022456  -0.030670   0.032429  -0.169201
   64  C 16  Z   -0.036139   0.039315  -0.070200   0.047739   0.009504
   65  C 17  S    0.236730  -0.050070  -0.251444   0.058478  -0.199661
   66  C 17  X   -0.005201  -0.015151  -0.068974   0.048951   0.036963
   67  C 17  Y   -0.013496  -0.053551  -0.013073  -0.042966   0.072398
   68  C 17  Z   -0.091261   0.001916  -0.028478   0.058233   0.085697
   69  C 18  S   -0.103349   0.347600  -0.032669   0.159350   0.010446
   70  C 18  X    0.013307   0.012384   0.079490  -0.011036  -0.054965
   71  C 18  Y    0.016242  -0.022299   0.020804   0.116940  -0.001943
   72  C 18  Z    0.027997  -0.066543   0.014950   0.038755  -0.002236
   73  C 19  S   -0.108927   0.060963   0.036125   0.363229   0.007254
   74  C 19  X   -0.006407   0.018250   0.123512  -0.016457  -0.007994
   75  C 19  Y   -0.032056  -0.136764   0.020955   0.011151   0.001715
   76  C 19  Z    0.015966  -0.011231  -0.004160  -0.042855  -0.000696
   77  C 20  S   -0.026483  -0.147460  -0.216471   0.212981   0.043791
   78  C 20  X   -0.095489  -0.022562   0.076095   0.076126   0.028599
   79  C 20  Y   -0.033108  -0.075840   0.020434  -0.086483   0.067848
   80  C 20  Z   -0.029119   0.034878   0.057817   0.033419  -0.011105
   81  C 21  S   -0.008996   0.275509   0.058235  -0.046739  -0.178313
   82  C 21  X    0.089030  -0.072087   0.037850   0.010119  -0.019259
   83  C 21  Y    0.044704   0.041040   0.049445   0.059749   0.027924
   84  C 21  Z   -0.013480   0.035097   0.015826   0.068871   0.078990
   85  C 22  S   -0.221385  -0.190747   0.130395  -0.102523  -0.138411
   86  C 22  X    0.048469   0.040782   0.067143  -0.032639  -0.090502
   87  C 22  Y    0.020433   0.036748  -0.065598  -0.050114   0.011114
   88  C 22  Z    0.023097  -0.022739   0.029999   0.106494   0.053220
   89  C 23  S   -0.160030  -0.215028  -0.102468  -0.077868   0.159316
   90  C 23  X   -0.085654  -0.024088   0.076860   0.013764  -0.080510
   91  C 23  Y    0.007597   0.052376   0.033406  -0.059520  -0.015002
   92  C 23  Z    0.009016  -0.027853   0.012137   0.110170  -0.048655
   93  C 24  S    0.191137   0.029704   0.279350  -0.016059   0.156303
   94  C 24  X    0.023383  -0.005338  -0.080366  -0.029488   0.045173
   95  C 24  Y   -0.061060  -0.058554   0.013046  -0.048725  -0.071759
   96  C 24  Z   -0.089269   0.007787   0.038228   0.048734  -0.085732
   97  C 25  S   -0.088499  -0.074331   0.300748   0.145125  -0.046966
   98  C 25  X    0.078176   0.038203   0.048410  -0.094540   0.006414
   99  C 25  Y   -0.049796  -0.087216  -0.018266  -0.076834  -0.056297
  100  C 25  Z   -0.004974   0.019754  -0.060611   0.046004   0.016947
  101  C 26  S    0.258387   0.112375   0.132305  -0.006036   0.064139
  102  C 26  X    0.010456  -0.050271  -0.026519  -0.006135   0.082684
  103  C 26  Y    0.067292  -0.012601   0.048706   0.020658   0.162084
  104  C 26  Z   -0.064412   0.058941   0.068863   0.025466  -0.020134
  105  C 27  S   -0.063084   0.074301  -0.262625   0.209246  -0.041333
  106  C 27  X    0.087119  -0.046502  -0.061804  -0.078991   0.031743
  107  C 27  Y   -0.048391   0.080891  -0.007198  -0.083112  -0.064428
  108  C 27  Z    0.012793   0.016096  -0.065352  -0.036119  -0.009162
  109  C 28  S    0.219850  -0.035006  -0.252421   0.048286   0.198160
  110  C 28  X    0.012032   0.003970   0.073047  -0.044909   0.036902
  111  C 28  Y   -0.058927   0.047567  -0.028240  -0.046064  -0.070078
  112  C 28  Z    0.086266   0.005712   0.030426  -0.056127   0.083783
  113  C 29  S    0.263724  -0.102322  -0.108800   0.030677   0.076369
  114  C 29  X    0.002741   0.044459   0.022800  -0.014045   0.080156
  115  C 29  Y    0.072373   0.008859  -0.039646   0.030898   0.169453
  116  C 29  Z    0.061887   0.053475   0.057815  -0.043872   0.016151
  117  C 30  S    0.158570  -0.010845  -0.014158  -0.147604   0.071032
  118  C 30  X    0.019186   0.002555   0.006028   0.043684   0.073440
  119  C 30  Y   -0.114805  -0.002054  -0.009014  -0.039272  -0.175019
  120  C 30  Z   -0.007399  -0.021381   0.151873  -0.018866  -0.011389

                     11         12         13         14         15
                   -1.0621    -1.0241    -0.9932    -0.9828    -0.9703
                     A          A          A          A          A   
    1  C  1  S   -0.029610  -0.027807  -0.013369   0.017042   0.228301
    2  C  1  X    0.143688  -0.008835   0.007100  -0.003300   0.054622
    3  C  1  Y    0.083257  -0.002067   0.008498   0.000243   0.013879
    4  C  1  Z   -0.005316  -0.031116   0.188245   0.112975  -0.007862
    5  C  2  S   -0.242114   0.010600  -0.010554   0.015990   0.021162
    6  C  2  X   -0.039969  -0.002837  -0.006841   0.000623   0.030681
    7  C  2  Y   -0.029470  -0.014542  -0.010505   0.003858   0.068036
    8  C  2  Z   -0.014749  -0.181480   0.119641   0.047363  -0.009877
    9  C  3  S    0.153379  -0.134724  -0.207120  -0.189078   0.001461
   10  C  3  X    0.113391  -0.112652   0.093550  -0.052842  -0.024718
   11  C  3  Y    0.029404   0.003356   0.035926  -0.020008   0.113696
   12  C  3  Z    0.019742   0.030254  -0.001937  -0.013447   0.166896
   13  C  4  S    0.144026  -0.108314   0.088849  -0.264641   0.027386
   14  C  4  X   -0.120811   0.125974   0.092266   0.004482   0.032122
   15  C  4  Y    0.029728   0.005405  -0.042630   0.003695   0.096219
   16  C  4  Z    0.016890   0.042895  -0.011122  -0.002955   0.149335
   17  C  5  S   -0.038902   0.019020   0.001821   0.017649   0.192801
   18  C  5  X   -0.141809   0.003663  -0.006281  -0.000378  -0.063094
   19  C  5  Y    0.083237  -0.003044   0.002633   0.001147   0.020462
   20  C  5  Z    0.008318  -0.037032  -0.101328   0.187966  -0.018626
   21  C  6  S   -0.070149   0.327098   0.012580  -0.017206  -0.040741
   22  C  6  X   -0.014239   0.036016  -0.008028   0.018671  -0.016690
   23  C  6  Y   -0.111283  -0.005229  -0.163935  -0.000089  -0.031622
   24  C  6  Z   -0.009286  -0.007734  -0.008079  -0.022495   0.011478
   25  C  7  S    0.246843   0.135786   0.204059  -0.083706   0.036035
   26  C  7  X    0.019255  -0.002385   0.056685  -0.033335   0.032000
   27  C  7  Y   -0.057318   0.090374  -0.004060   0.033437  -0.009153
   28  C  7  Z    0.082666  -0.083791  -0.107149   0.034349  -0.038962
   29  C  8  S    0.012217  -0.048661   0.191196  -0.234035   0.074960
   30  C  8  X   -0.149436  -0.072408  -0.071012  -0.039036   0.016846
   31  C  8  Y    0.044721   0.037473   0.084912   0.033227   0.105497
   32  C  8  Z    0.065192   0.003656  -0.021866  -0.017677  -0.114157
   33  C  9  S   -0.032331   0.036911  -0.083586   0.090362  -0.191796
   34  C  9  X    0.057485  -0.184955   0.044382   0.060679  -0.060385
   35  C  9  Y    0.032186  -0.054764  -0.137852  -0.113648  -0.055226
   36  C  9  Z   -0.015605   0.064902  -0.068571  -0.054830   0.002790
   37  C 10  S   -0.058744  -0.150193   0.096078   0.335199   0.022764
   38  C 10  X    0.003067  -0.000295  -0.034453   0.010689   0.021967
   39  C 10  Y    0.059689  -0.037663   0.004857  -0.017448  -0.226712
   40  C 10  Z   -0.006961  -0.010414   0.006914   0.018121   0.005985
   41  C 11  S   -0.161676  -0.128030  -0.021225   0.011976   0.320947
   42  C 11  X    0.011058   0.007357  -0.160127   0.047704   0.003529
   43  C 11  Y    0.018933   0.004046   0.057911   0.184514   0.057225
   44  C 11  Z   -0.020551  -0.015697  -0.027405  -0.096603  -0.007016
   45  C 12  S   -0.119460  -0.003501  -0.007360  -0.011387  -0.261376
   46  C 12  X   -0.146528   0.018674   0.001492   0.000988  -0.081722
   47  C 12  Y    0.027078  -0.005429   0.001236  -0.000989   0.015774
   48  C 12  Z    0.010329   0.069279  -0.026309   0.205434  -0.006265
   49  C 13  S   -0.117223   0.022280   0.000862  -0.015135  -0.264278
   50  C 13  X    0.147368  -0.000524   0.004855   0.002003   0.079242
   51  C 13  Y    0.026739   0.002307   0.004965   0.000781   0.013840
   52  C 13  Z    0.001235   0.065493   0.135444   0.155537  -0.014682
   53  C 14  S    0.041409  -0.013244  -0.293266  -0.083524   0.073635
   54  C 14  X    0.149362   0.075271  -0.016778   0.069671  -0.021550
   55  C 14  Y    0.049838   0.031841  -0.054921   0.069625   0.103506
   56  C 14  Z    0.061952   0.013186   0.021916  -0.030148  -0.115365
   57  C 15  S    0.046654   0.018619  -0.205709   0.236451   0.048794
   58  C 15  X   -0.143671   0.091808   0.058838   0.054318   0.017054
   59  C 15  Y    0.044820  -0.036031  -0.078947  -0.022042   0.102652
   60  C 15  Z   -0.062380   0.019304  -0.027027   0.000710   0.110246
   61  C 16  S    0.248856  -0.156648  -0.184618   0.074768   0.012753
   62  C 16  X    0.030731  -0.010634  -0.061169   0.030550   0.028984
   63  C 16  Y   -0.064565  -0.055962   0.015226  -0.028392  -0.014425
   64  C 16  Z   -0.081893  -0.066994  -0.104003   0.034846   0.027281
   65  C 17  S   -0.103478  -0.285882  -0.004167   0.017412  -0.066486
   66  C 17  X   -0.023632  -0.037466   0.005451  -0.027536  -0.013871
   67  C 17  Y   -0.125297   0.003062   0.143448   0.004433  -0.025968
   68  C 17  Z    0.008178  -0.015636  -0.014319  -0.031983  -0.005789
   69  C 18  S   -0.146349   0.135975  -0.005034   0.036411   0.321745
   70  C 18  X   -0.005313  -0.002634   0.162814  -0.045925   0.010957
   71  C 18  Y    0.014958  -0.010147  -0.050132  -0.182379   0.075831
   72  C 18  Z    0.016196  -0.018128  -0.029220  -0.095272   0.015501
   73  C 19  S   -0.052762   0.154446  -0.096718  -0.332543   0.061525
   74  C 19  X    0.002787  -0.004143   0.026739  -0.003034   0.023423
   75  C 19  Y    0.061390   0.039369   0.006127  -0.012136  -0.223710
   76  C 19  Z    0.007233  -0.008568   0.004535   0.016746  -0.010614
   77  C 20  S   -0.054002  -0.024174   0.094350  -0.117102  -0.176680
   78  C 20  X    0.078603   0.177385  -0.036155  -0.070126  -0.043041
   79  C 20  Y    0.035766   0.043986   0.133160   0.111900  -0.053558
   80  C 20  Z    0.026377   0.062419  -0.064047  -0.055471  -0.001619
   81  C 21  S    0.024362   0.032422   0.299782   0.094270   0.062315
   82  C 21  X    0.139859  -0.089646   0.034449  -0.079161  -0.013970
   83  C 21  Y    0.040925  -0.047726   0.055941  -0.061194   0.117451
   84  C 21  Z   -0.062764   0.006365   0.008759  -0.010059   0.122485
   85  C 22  S    0.172068   0.117873  -0.073913   0.262409  -0.016947
   86  C 22  X   -0.121328  -0.103382  -0.100662   0.009289   0.024330
   87  C 22  Y    0.027132  -0.008644   0.047768   0.008407   0.095656
   88  C 22  Z   -0.015505   0.039715  -0.013395  -0.024362  -0.144131
   89  C 23  S    0.162266   0.101443   0.209568   0.180742  -0.005865
   90  C 23  X    0.128472   0.111812  -0.075955   0.042993  -0.028724
   91  C 23  Y    0.028252  -0.015726  -0.038322   0.029448   0.101976
   92  C 23  Z   -0.018179   0.050562   0.001820  -0.029959  -0.158125
   93  C 24  S   -0.098456  -0.317844   0.002339   0.014273  -0.046267
   94  C 24  X    0.014691   0.037046   0.017598   0.012921  -0.010377
   95  C 24  Y   -0.109010   0.019760  -0.128730   0.084959  -0.035842
   96  C 24  Z    0.012343  -0.013619  -0.006965  -0.021714   0.023847
   97  C 25  S   -0.032273  -0.036918  -0.135483  -0.039224  -0.122642
   98  C 25  X   -0.071318  -0.179737  -0.004494   0.085150   0.047570
   99  C 25  Y    0.039019   0.056516  -0.054588   0.159465  -0.079754
  100  C 25  Z    0.019899   0.064552   0.028223  -0.079897   0.003795
  101  C 26  S    0.231934  -0.168447   0.208078  -0.041101   0.015293
  102  C 26  X   -0.019933   0.004077  -0.071036   0.002566  -0.041733
  103  C 26  Y   -0.067242  -0.079754  -0.033398  -0.018710  -0.011773
  104  C 26  Z   -0.085945  -0.081062   0.106625  -0.022808   0.054930
  105  C 27  S   -0.038436   0.045055   0.126687   0.031835  -0.120706
  106  C 27  X   -0.060750   0.183756  -0.006740  -0.070703   0.061735
  107  C 27  Y    0.022432  -0.043151   0.059548  -0.167383  -0.055021
  108  C 27  Z   -0.018914   0.065149   0.026598  -0.083530   0.008461
  109  C 28  S   -0.072032   0.297754  -0.016829  -0.015842  -0.043984
  110  C 28  X    0.014991  -0.044468  -0.017805  -0.012968  -0.008856
  111  C 28  Y   -0.124782   0.003034   0.118844  -0.082019  -0.018967
  112  C 28  Z   -0.015671  -0.023584  -0.000527  -0.028848  -0.024305
  113  C 29  S    0.258852   0.138962  -0.197217   0.035135   0.009980
  114  C 29  X   -0.030489  -0.008211   0.062350  -0.006947  -0.039997
  115  C 29  Y   -0.056803   0.064278   0.023659   0.019844  -0.017448
  116  C 29  Z    0.072776  -0.077072   0.103294  -0.031765  -0.051187
  117  C 30  S   -0.245439   0.009800  -0.006134   0.000583  -0.023503
  118  C 30  X    0.045297  -0.004406  -0.000679  -0.002097  -0.030704
  119  C 30  Y   -0.024664   0.012656   0.000613   0.005669   0.068138
  120  C 30  Z   -0.001571  -0.174629  -0.077227   0.102149  -0.007907

                     16         17         18         19         20
                   -0.9470    -0.8675    -0.8225    -0.8149    -0.8009
                     A          A          A          A          A   
    1  C  1  S    0.143967   0.113580  -0.156697   0.119751  -0.054772
    2  C  1  X   -0.046649  -0.158520  -0.112664   0.101637  -0.032463
    3  C  1  Y   -0.033983  -0.092891  -0.052981   0.049456  -0.013228
    4  C  1  Z   -0.004333   0.010700   0.027039   0.097329   0.170396
    5  C  2  S    0.231535   0.047267   0.188197  -0.154632   0.061765
    6  C  2  X   -0.006083   0.096046  -0.023372   0.014370  -0.012195
    7  C  2  Y   -0.006190   0.206988  -0.042176   0.020953  -0.025301
    8  C  2  Z   -0.006777   0.003981   0.107680   0.110643  -0.092747
    9  C  3  S   -0.018337  -0.110216  -0.035887   0.118614  -0.208913
   10  C  3  X    0.005889  -0.153027   0.140415   0.113296   0.110095
   11  C  3  Y    0.046748  -0.059928  -0.009716   0.046365   0.007753
   12  C  3  Z    0.055985  -0.023083  -0.073854   0.025024  -0.026068
   13  C  4  S    0.019718  -0.090846   0.148136   0.002482   0.191798
   14  C  4  X   -0.005196   0.165437  -0.055264  -0.161766   0.114401
   15  C  4  Y   -0.066894  -0.061736   0.043538  -0.006428  -0.040009
   16  C  4  Z   -0.085653  -0.019017   0.049006  -0.082074  -0.007338
   17  C  5  S   -0.193293   0.118601   0.152066  -0.119180   0.023950
   18  C  5  X   -0.032114   0.146079  -0.136739   0.103249  -0.022559
   19  C  5  Y    0.027530  -0.086274   0.061438  -0.048228   0.005914
   20  C  5  Z   -0.002144  -0.009263   0.067421   0.048386  -0.159481
   21  C  6  S   -0.057416  -0.077355   0.028371  -0.023808   0.230687
   22  C  6  X   -0.127072   0.076238  -0.019657  -0.022393  -0.025249
   23  C  6  Y    0.021445   0.098242  -0.000651  -0.277665  -0.013734
   24  C  6  Z    0.171706  -0.100162   0.027155  -0.005747   0.029491
   25  C  7  S    0.054451   0.022449  -0.016100   0.315727  -0.017793
   26  C  7  X   -0.052917   0.099096   0.063474   0.000457  -0.070089
   27  C  7  Y   -0.009503  -0.193655  -0.039921   0.049449   0.137324
   28  C  7  Z    0.112619  -0.000848  -0.132638  -0.074869  -0.010555
   29  C  8  S   -0.026014   0.068071   0.147495  -0.045578  -0.205144
   30  C  8  X   -0.013080  -0.151716  -0.056171  -0.167908   0.023757
   31  C  8  Y   -0.057093   0.026203  -0.022754   0.117508  -0.032612
   32  C  8  Z    0.073800   0.091718   0.065439  -0.014554   0.020858
   33  C  9  S   -0.280675   0.078122  -0.020727  -0.066883  -0.033300
   34  C  9  X    0.035722  -0.041855   0.027146   0.098034  -0.069268
   35  C  9  Y    0.079215   0.001308  -0.010076  -0.012598  -0.109724
   36  C  9  Z    0.000010   0.014095  -0.016532  -0.040362  -0.007208
   37  C 10  S   -0.000959   0.019892  -0.033645  -0.028774  -0.001258
   38  C 10  X    0.223713   0.005463  -0.006226   0.002898   0.023692
   39  C 10  Y    0.020749   0.030953   0.050106   0.077807   0.020944
   40  C 10  Z    0.002036  -0.000638  -0.000883  -0.002970   0.000481
   41  C 11  S   -0.025119  -0.112551  -0.096581  -0.126735   0.009094
   42  C 11  X    0.098064   0.011497  -0.041102   0.048943   0.158087
   43  C 11  Y   -0.004898   0.049821   0.006042   0.003207  -0.025438
   44  C 11  Z   -0.000223  -0.022353  -0.001348  -0.003320   0.007910
   45  C 12  S    0.078833  -0.062151   0.168665  -0.124125   0.040399
   46  C 12  X   -0.022718  -0.197312  -0.085090   0.074485  -0.027392
   47  C 12  Y    0.009690   0.060801   0.036221  -0.027690   0.005783
   48  C 12  Z   -0.002680   0.009138   0.020469   0.062637   0.110734
   49  C 13  S   -0.024671  -0.063205  -0.169596   0.133287  -0.043970
   50  C 13  X   -0.049894   0.196203  -0.091927   0.065029  -0.018218
   51  C 13  Y   -0.015340   0.058630  -0.033291   0.020510  -0.011762
   52  C 13  Z    0.002043  -0.001099   0.044311   0.015073  -0.150426
   53  C 14  S    0.008001   0.089032  -0.057844   0.160254   0.215124
   54  C 14  X   -0.017182   0.144886   0.152814   0.091927  -0.022155
   55  C 14  Y    0.035148   0.027174   0.118938  -0.001017   0.003607
   56  C 14  Z   -0.056016   0.084980  -0.035152   0.057865  -0.023348
   57  C 15  S   -0.038105   0.083923   0.011596  -0.081953   0.244251
   58  C 15  X   -0.009835  -0.138518   0.159607   0.103153   0.015277
   59  C 15  Y   -0.059492   0.017043  -0.118077  -0.001679  -0.013202
   60  C 15  Z   -0.074584  -0.089414  -0.032729   0.062050   0.000271
   61  C 16  S    0.037177   0.002763  -0.313435  -0.076887  -0.061408
   62  C 16  X   -0.051764   0.098951  -0.009332  -0.040514   0.067845
   63  C 16  Y   -0.011085  -0.200608  -0.004363   0.010737  -0.146599
   64  C 16  Z   -0.121597  -0.007300  -0.020571  -0.133024  -0.012360
   65  C 17  S   -0.069461  -0.093916   0.104692  -0.064455  -0.212731
   66  C 17  X   -0.123335   0.077406   0.023357   0.028034  -0.005486
   67  C 17  Y    0.023230   0.116592   0.249290   0.067806   0.080539
   68  C 17  Z   -0.167673   0.098489  -0.016780   0.021689  -0.023710
   69  C 18  S   -0.025141  -0.105385   0.094612   0.127864   0.010598
   70  C 18  X    0.105548  -0.001234  -0.014952  -0.010198  -0.159697
   71  C 18  Y   -0.003975   0.046214  -0.010639  -0.005360   0.001608
   72  C 18  Z   -0.001874   0.019517  -0.006038  -0.001665   0.003933
   73  C 19  S    0.000732   0.018936   0.016423   0.035249  -0.001937
   74  C 19  X    0.226813   0.003289  -0.005791   0.002782  -0.020410
   75  C 19  Y    0.020639   0.029000  -0.055797  -0.074676  -0.005682
   76  C 19  Z   -0.000336   0.000344  -0.004233  -0.003694  -0.000245
   77  C 20  S   -0.275019   0.088120   0.053649   0.038061   0.038018
   78  C 20  X    0.037100  -0.041738  -0.116332  -0.037470   0.085737
   79  C 20  Y    0.084790   0.012440  -0.043637   0.036193   0.136100
   80  C 20  Z   -0.006768  -0.017520  -0.032471  -0.032254  -0.007815
   81  C 21  S    0.017098   0.072352  -0.106789  -0.041439  -0.240501
   82  C 21  X   -0.018516   0.141140  -0.060355  -0.169631   0.026965
   83  C 21  Y    0.036803   0.022926   0.024994  -0.120631   0.034444
   84  C 21  Z    0.055939  -0.085623   0.067253  -0.014203   0.016684
   85  C 22  S    0.012918  -0.107610   0.082562  -0.175556  -0.141513
   86  C 22  X   -0.004354   0.157814   0.161436   0.074592  -0.110515
   87  C 22  Y   -0.068370  -0.064439   0.003113  -0.035201   0.044005
   88  C 22  Z    0.085390   0.021447  -0.087052   0.021294  -0.017814
   89  C 23  S   -0.020683  -0.101077  -0.185204   0.048047   0.171786
   90  C 23  X    0.002042  -0.165809  -0.028527  -0.186685  -0.071677
   91  C 23  Y    0.038994  -0.061324  -0.027386  -0.003624  -0.043400
   92  C 23  Z   -0.048985   0.021440   0.037276  -0.081901   0.032451
   93  C 24  S    0.065357  -0.079531  -0.060371   0.098668   0.203165
   94  C 24  X   -0.124056  -0.081302  -0.029385  -0.013066   0.021816
   95  C 24  Y   -0.021132   0.106418  -0.000302   0.245441  -0.109757
   96  C 24  Z    0.160322   0.103905   0.037251  -0.009619  -0.014227
   97  C 25  S    0.305426   0.091239   0.030549   0.058728  -0.070514
   98  C 25  X    0.014150   0.043424   0.024474   0.114477   0.053788
   99  C 25  Y   -0.070864   0.002840   0.034551  -0.032494  -0.117833
  100  C 25  Z    0.004771  -0.015923  -0.027130  -0.034046   0.010764
  101  C 26  S   -0.059931   0.006276   0.013790  -0.302961   0.092979
  102  C 26  X   -0.045246  -0.099444   0.050299   0.030315   0.072938
  103  C 26  Y    0.020600  -0.194424   0.023894   0.009879   0.154697
  104  C 26  Z    0.106834   0.002145  -0.127149  -0.069766   0.021128
  105  C 27  S    0.311722   0.094638  -0.057381  -0.032548   0.043652
  106  C 27  X    0.022709   0.036685  -0.079133  -0.064999  -0.103225
  107  C 27  Y   -0.066791   0.011078   0.003226   0.001788   0.135582
  108  C 27  Z   -0.006589   0.013569  -0.024882  -0.031099   0.007189
  109  C 28  S    0.077923  -0.094580  -0.050381  -0.005216  -0.240299
  110  C 28  X   -0.121648  -0.081151   0.012350   0.033084  -0.003923
  111  C 28  Y   -0.018210   0.104217  -0.261602  -0.046144   0.050093
  112  C 28  Z   -0.158072  -0.102768  -0.032070   0.028625   0.012822
  113  C 29  S   -0.052756   0.013141   0.316401   0.066464  -0.024320
  114  C 29  X   -0.038295  -0.102597   0.005436  -0.054458  -0.055719
  115  C 29  Y    0.027725  -0.198653   0.041513  -0.053656  -0.137077
  116  C 29  Z   -0.110520  -0.007881  -0.027921  -0.123219   0.042855
  117  C 30  S   -0.223848   0.035022  -0.214371   0.155479  -0.028423
  118  C 30  X    0.007760  -0.096488  -0.016291   0.014243  -0.006107
  119  C 30  Y   -0.010307   0.201685   0.037080  -0.029070   0.000766
  120  C 30  Z   -0.010377   0.002893   0.089154   0.131238   0.071184

                     21         22         23         24         25
                   -0.7776    -0.7706    -0.7614    -0.7530    -0.7343
                     A          A          A          A          A   
    1  C  1  S    0.048783  -0.013026   0.187654  -0.014558  -0.127407
    2  C  1  X   -0.117034  -0.032140   0.073487   0.003398   0.073221
    3  C  1  Y   -0.059423  -0.007027   0.043774  -0.005366   0.026343
    4  C  1  Z   -0.051239   0.194538   0.020944  -0.140033  -0.001805
    5  C  2  S    0.251744   0.051844  -0.065554  -0.010751  -0.115699
    6  C  2  X   -0.020120  -0.011741   0.029805   0.008161  -0.024043
    7  C  2  Y    0.007265  -0.003663   0.055398  -0.005978  -0.093857
    8  C  2  Z   -0.018016   0.082616  -0.017001  -0.200741   0.011309
    9  C  3  S    0.008865  -0.148038  -0.128902   0.044307   0.089976
   10  C  3  X    0.030240  -0.029542  -0.066302  -0.072645  -0.043668
   11  C  3  Y    0.009015  -0.130793   0.093755   0.005701  -0.067690
   12  C  3  Z   -0.007971  -0.143799   0.175994   0.032362  -0.078066
   13  C  4  S   -0.012817  -0.151174  -0.086942  -0.110956  -0.085021
   14  C  4  X   -0.043849   0.042974   0.080486  -0.062787  -0.027843
   15  C  4  Y    0.007734  -0.097653   0.077419  -0.066096   0.097899
   16  C  4  Z   -0.015219  -0.096110   0.162329  -0.083416   0.103775
   17  C  5  S    0.060410   0.003862   0.165261  -0.006040   0.160719
   18  C  5  X    0.110431   0.028693  -0.090185   0.007266   0.061923
   19  C  5  Y   -0.050159  -0.007775   0.048324  -0.003647  -0.009942
   20  C  5  Z   -0.007566   0.136787   0.010796   0.214704  -0.010749
   21  C  6  S   -0.147481  -0.051965   0.027320   0.099548  -0.016875
   22  C  6  X   -0.145043   0.017441   0.026287  -0.087023   0.015342
   23  C  6  Y    0.044248   0.033255  -0.066962   0.019398   0.047371
   24  C  6  Z    0.211059  -0.018950  -0.044899   0.113142  -0.010640
   25  C  7  S    0.019813  -0.029277   0.021838   0.105021   0.042253
   26  C  7  X   -0.039289   0.001412  -0.040314   0.000386  -0.077192
   27  C  7  Y   -0.050822  -0.050317   0.046018   0.005868  -0.031704
   28  C  7  Z    0.133787   0.045344   0.017196  -0.039747   0.193171
   29  C  8  S   -0.011897   0.103904  -0.110320   0.069841  -0.137286
   30  C  8  X   -0.007381   0.039233  -0.041658  -0.046031  -0.044652
   31  C  8  Y   -0.002420  -0.115431  -0.071753  -0.024808  -0.127368
   32  C  8  Z    0.021278   0.076409   0.093333   0.052641   0.178163
   33  C  9  S   -0.136614   0.183028   0.004855  -0.194444   0.142390
   34  C  9  X    0.213599   0.107894   0.007402  -0.052837  -0.002531
   35  C  9  Y    0.037748   0.016535  -0.197617   0.144726   0.109654
   36  C  9  Z   -0.072244  -0.051499  -0.063391   0.076047   0.024923
   37  C 10  S    0.212106  -0.026043   0.229975  -0.016777   0.019546
   38  C 10  X    0.009799  -0.065349   0.003526   0.322290   0.034682
   39  C 10  Y   -0.010859   0.294229   0.035689   0.064953  -0.014916
   40  C 10  Z   -0.001079  -0.007261  -0.007460   0.009024  -0.008150
   41  C 11  S    0.066975  -0.185475  -0.184797  -0.041908   0.004072
   42  C 11  X   -0.017301  -0.014197  -0.006504   0.076168   0.274317
   43  C 11  Y    0.105138  -0.186403   0.139435  -0.040818   0.017777
   44  C 11  Z   -0.049207   0.096384  -0.077945   0.026634  -0.021352
   45  C 12  S    0.000397  -0.022535   0.203258  -0.011511   0.135032
   46  C 12  X   -0.043991  -0.025458   0.123402  -0.006452  -0.078343
   47  C 12  Y    0.016649   0.011809  -0.073505   0.007744   0.013522
   48  C 12  Z    0.028419  -0.237407  -0.033186  -0.085228   0.008699
   49  C 13  S   -0.007519  -0.025038   0.217045  -0.010680  -0.110155
   50  C 13  X    0.042544   0.018003  -0.115379   0.003886  -0.097507
   51  C 13  Y    0.014937   0.005844  -0.069888   0.006915  -0.024518
   52  C 13  Z    0.045621  -0.229309  -0.022780  -0.017181   0.014452
   53  C 14  S   -0.053333   0.096962  -0.111647  -0.026057   0.122824
   54  C 14  X    0.015769  -0.025465   0.047560  -0.062892  -0.019026
   55  C 14  Y   -0.002426  -0.103239  -0.078611  -0.013068   0.134159
   56  C 14  Z    0.028225   0.076869   0.103849  -0.017589  -0.178478
   57  C 15  S   -0.018708  -0.091338  -0.112881  -0.071509  -0.148169
   58  C 15  X    0.013679  -0.034070  -0.061381   0.043564  -0.029709
   59  C 15  Y   -0.039094   0.111603  -0.033243   0.032997  -0.141029
   60  C 15  Z   -0.045541   0.073208  -0.066417   0.044316  -0.188899
   61  C 16  S   -0.008430   0.027308   0.033090  -0.106093   0.037263
   62  C 16  X   -0.041584  -0.010296  -0.027955   0.013065  -0.082135
   63  C 16  Y   -0.045269   0.018072   0.036695  -0.006731  -0.008842
   64  C 16  Z   -0.148465  -0.008730  -0.009570  -0.036405  -0.198722
   65  C 17  S   -0.138378   0.003707  -0.010515  -0.098520   0.004738
   66  C 17  X   -0.119977  -0.070341   0.028675   0.101999   0.007098
   67  C 17  Y    0.045559   0.006609  -0.083237  -0.014924   0.040955
   68  C 17  Z   -0.182422  -0.091304   0.045931   0.114624  -0.004756
   69  C 18  S    0.012988   0.236755  -0.134188   0.047799  -0.012819
   70  C 18  X   -0.002025   0.032449  -0.023689  -0.055294   0.286247
   71  C 18  Y    0.047726   0.177578   0.188916   0.027974   0.006224
   72  C 18  Z    0.020077   0.087872   0.102197   0.011732  -0.004070
   73  C 19  S    0.202883   0.041034   0.234389  -0.011813   0.021354
   74  C 19  X   -0.015863   0.072749  -0.012719  -0.320811   0.042760
[...]
   37  C 10  S   -0.000015  -0.000008   0.000060  -0.033984   0.044821
   38  C 10  X   -0.030117  -0.026836  -0.047131  -0.000186   0.000042
   39  C 10  Y    0.000009  -0.000013  -0.000061   0.045925  -0.064906
   40  C 10  Z    0.000140  -0.000069  -0.000415   0.300746  -0.207794
   41  C 11  S    0.000002  -0.000009  -0.000087   0.041777  -0.068315
   42  C 11  X   -0.028972  -0.031984  -0.053686  -0.000006  -0.000119
   43  C 11  Y    0.000007   0.000047   0.000188  -0.103152   0.139964
   44  C 11  Z   -0.000012   0.000067   0.000404  -0.250536   0.329077
   45  C 12  S   -0.020249  -0.069354   0.000039  -0.005451  -0.000003
   46  C 12  X    0.032786   0.073194  -0.000073   0.039029  -0.000076
   47  C 12  Y    0.153817   0.317428  -0.000171   0.046440   0.000062
   48  C 12  Z    0.000009  -0.000015  -0.030481   0.000010   0.031443
   49  C 13  S    0.020269   0.069417  -0.000048  -0.005364   0.000140
   50  C 13  X    0.032731   0.073212   0.000002  -0.038943   0.000129
   51  C 13  Y   -0.153731  -0.317426   0.000043   0.046043  -0.000251
   52  C 13  Z    0.000045   0.000048   0.030455   0.000015   0.031421
   53  C 14  S    0.030293   0.016292   0.039716   0.005460   0.001356
   54  C 14  X    0.080941   0.106234   0.098123   0.054268  -0.022096
   55  C 14  Y   -0.085069  -0.097967  -0.124532  -0.047992  -0.063694
   56  C 14  Z   -0.100355  -0.144209  -0.138527  -0.026238  -0.078679
   57  C 15  S   -0.030277  -0.016305   0.039676   0.005387  -0.001597
   58  C 15  X    0.080909   0.106283  -0.098206  -0.054185  -0.021955
   59  C 15  Y    0.085076   0.098052  -0.124611  -0.047863   0.064098
   60  C 15  Z   -0.100304  -0.144176   0.138599   0.025953  -0.079073
   61  C 16  S    0.014487   0.017282  -0.028040  -0.037306  -0.102951
   62  C 16  X   -0.077403  -0.202940   0.096089   0.172014   0.212836
   63  C 16  Y   -0.043530  -0.107020   0.083532   0.061457   0.046443
   64  C 16  Z    0.033657   0.111198  -0.020561  -0.099520  -0.035252
   65  C 17  S    0.017958   0.020562  -0.028019   0.051301   0.093428
   66  C 17  X   -0.085686   0.022736   0.192091  -0.169853  -0.198824
   67  C 17  Y   -0.001152   0.026267  -0.034052  -0.006112  -0.011556
   68  C 17  Z    0.090571  -0.042724  -0.164542   0.119418   0.156172
   69  C 18  S    0.000027  -0.000014  -0.000095   0.041931   0.068648
   70  C 18  X   -0.028959  -0.031954   0.053654  -0.000041  -0.000111
   71  C 18  Y   -0.000157  -0.000050   0.000273  -0.103236  -0.140148
   72  C 18  Z    0.000291  -0.000015  -0.000559   0.250671   0.329134
   73  C 19  S   -0.000012   0.000058   0.000059  -0.033923  -0.044697
   74  C 19  X   -0.030112  -0.026817   0.047147   0.000170   0.000059
   75  C 19  Y   -0.000013  -0.000013  -0.000059   0.045915   0.065069
   76  C 19  Z    0.000251   0.000398   0.000189  -0.300882  -0.207466
   77  C 20  S   -0.035775  -0.022639   0.035874  -0.024627  -0.043387
   78  C 20  X    0.116708   0.012307  -0.104312   0.048238   0.087304
   79  C 20  Y   -0.057027  -0.020401   0.036458  -0.031617  -0.025496
   80  C 20  Z   -0.249588  -0.033858   0.210451  -0.006986  -0.055748
   81  C 21  S    0.030259   0.016254  -0.039646   0.005288  -0.001659
   82  C 21  X    0.080845   0.106103  -0.098228   0.054079   0.022044
   83  C 21  Y   -0.085003  -0.097934   0.124637  -0.047779   0.064023
   84  C 21  Z    0.100321   0.144218  -0.138688   0.025944  -0.078904
   85  C 22  S    0.009354  -0.018957  -0.031468   0.039930   0.008984
   86  C 22  X    0.038206  -0.031739  -0.034086   0.078469   0.027760
   87  C 22  Y    0.179906  -0.106838  -0.199030   0.088864   0.008887
   88  C 22  Z    0.117621  -0.097442  -0.127839   0.030103   0.021429
   89  C 23  S   -0.009414   0.018964   0.031434   0.040099   0.009108
   90  C 23  X    0.038437  -0.031795  -0.034090  -0.078639  -0.027832
   91  C 23  Y   -0.180062   0.106768   0.198857   0.089621   0.009069
   92  C 23  Z   -0.117725   0.097432   0.127759   0.030598   0.021536
   93  C 24  S   -0.017984  -0.020668   0.027851   0.051155   0.093222
   94  C 24  X   -0.085890   0.022321   0.191683   0.169958   0.198472
   95  C 24  Y    0.001090  -0.026245   0.034112  -0.006076  -0.011578
   96  C 24  Z   -0.090834   0.042519   0.164480   0.119828   0.156171
   97  C 25  S    0.035855   0.022610  -0.035850  -0.024638  -0.043288
   98  C 25  X    0.116549   0.012266  -0.103973  -0.048486  -0.087194
   99  C 25  Y    0.057083   0.020336  -0.036410  -0.031736  -0.025491
  100  C 25  Z    0.249696   0.033631  -0.210407  -0.007736  -0.055904
  101  C 26  S   -0.014513  -0.017168   0.028162  -0.037093  -0.102795
  102  C 26  X   -0.077720  -0.202658   0.096760  -0.171557  -0.212514
  103  C 26  Y    0.043655   0.106872  -0.083737   0.061208   0.046290
  104  C 26  Z   -0.033843  -0.111307   0.020974  -0.099673  -0.035327
  105  C 27  S    0.035829   0.022667   0.035890  -0.024526   0.043183
  106  C 27  X    0.116740   0.012384   0.104308  -0.048180   0.087146
  107  C 27  Y    0.057041   0.020417   0.036461  -0.031603   0.025444
  108  C 27  Z   -0.249566  -0.033868  -0.210378   0.006922  -0.055445
  109  C 28  S   -0.017962  -0.020662  -0.027999   0.051142  -0.093216
  110  C 28  X   -0.085750   0.022411  -0.192207   0.169629  -0.198710
  111  C 28  Y    0.001167  -0.026271  -0.034013  -0.006196   0.011666
  112  C 28  Z    0.090608  -0.042506   0.164617  -0.119288   0.156033
  113  C 29  S   -0.014493  -0.017193  -0.028035  -0.037255   0.102917
  114  C 29  X   -0.077550  -0.202814  -0.096069  -0.172113   0.212897
  115  C 29  Y    0.043582   0.106957   0.083509   0.061549  -0.046571
  116  C 29  Z    0.033724   0.111121   0.020521   0.099590  -0.035402
  117  C 30  S   -0.044172   0.064119  -0.000020   0.006027  -0.000028
  118  C 30  X   -0.272535   0.250085  -0.000136   0.049309  -0.000023
  119  C 30  Y   -0.131490   0.122162  -0.000124   0.071578  -0.000035
  120  C 30  Z   -0.000093   0.000101  -0.053370  -0.000059  -0.047569

                     66         67         68         69         70
                   -0.0464    -0.0396    -0.0393    -0.0353    -0.0312
                     A          A          A          A          A   
    1  C  1  S    0.069578  -0.001350  -0.208425  -0.077695   0.000024
    2  C  1  X   -0.028322   0.001206   0.163086  -0.048182  -0.000049
    3  C  1  Y    0.086777  -0.001668  -0.243867  -0.042862  -0.000001
    4  C  1  Z    0.000052   0.017127   0.000022   0.000175   0.154664
    5  C  2  S    0.014548   0.001584   0.215350  -0.034198  -0.000020
    6  C  2  X    0.017545  -0.002410  -0.317567   0.098061  -0.000024
    7  C  2  Y   -0.036758   0.000940   0.132846  -0.008425   0.000025
    8  C  2  Z   -0.000083   0.026733  -0.000345   0.000116   0.025509
    9  C  3  S   -0.056548   0.019378   0.080465   0.108990   0.171138
   10  C  3  X    0.076260  -0.031572  -0.104592  -0.050965  -0.051805
   11  C  3  Y   -0.042976   0.022785   0.067676   0.086663   0.264436
   12  C  3  Z    0.039814  -0.051656   0.026233  -0.081199  -0.243378
   13  C  4  S   -0.056854   0.019814   0.080401  -0.108869  -0.171155
   14  C  4  X   -0.076431   0.031776   0.104542  -0.050849  -0.051988
   15  C  4  Y   -0.043440   0.023116   0.067471  -0.086502  -0.264379
   16  C  4  Z    0.040196  -0.051970   0.026505   0.081032   0.243309
   17  C  5  S    0.069663  -0.001614  -0.208511   0.077586   0.000061
   18  C  5  X    0.028224  -0.001141  -0.163011  -0.048219   0.000162
   19  C  5  Y    0.086829  -0.001849  -0.243922   0.042744   0.000109
   20  C  5  Z   -0.000075   0.017194  -0.000262  -0.000133  -0.154631
   21  C  6  S   -0.064010  -0.000297  -0.139957   0.052968   0.040378
   22  C  6  X    0.040111  -0.022415   0.148022  -0.078119  -0.011971
   23  C  6  Y   -0.036525   0.064499  -0.073154   0.051780   0.044364
   24  C  6  Z    0.076100  -0.082132   0.031237  -0.064231  -0.032009
   25  C  7  S   -0.035987   0.135463   0.035602   0.024941   0.031870
   26  C  7  X    0.061836  -0.166970  -0.043768   0.010503  -0.094825
   27  C  7  Y    0.094985  -0.142379   0.033666  -0.052273  -0.083313
   28  C  7  Z    0.065965  -0.024488  -0.029681  -0.009970  -0.004490
   29  C  8  S    0.117875  -0.114668   0.027444  -0.152587  -0.038644
   30  C  8  X   -0.096842   0.114543   0.015606   0.009787   0.045625
   31  C  8  Y   -0.165563   0.114063  -0.042789   0.169241   0.049332
   32  C  8  Z   -0.141082   0.163353  -0.039423   0.018364   0.075102
   33  C  9  S    0.117517  -0.076308   0.031400  -0.107075  -0.097268
   34  C  9  X   -0.086691   0.055062  -0.057287   0.033476   0.035516
   35  C  9  Y    0.064176  -0.059656  -0.041456  -0.053244  -0.096449
   36  C  9  Z   -0.207895   0.211119   0.006422   0.089613   0.134363
   37  C 10  S   -0.088076   0.086226   0.026636   0.000174   0.000014
   38  C 10  X   -0.000162   0.000228   0.000007  -0.098075  -0.083498
   39  C 10  Y   -0.091682   0.057901  -0.051445   0.000146   0.000120
   40  C 10  Z    0.213025  -0.212774  -0.090698  -0.000427  -0.000072
   41  C 11  S   -0.084340   0.077071  -0.077041   0.000176   0.000160
   42  C 11  X   -0.000137   0.000209  -0.000068  -0.128705  -0.054939
   43  C 11  Y    0.154068  -0.145413   0.048262  -0.000265  -0.000150
   44  C 11  Z    0.062549  -0.038889   0.116248  -0.000087  -0.000155
   45  C 12  S   -0.062338  -0.000545  -0.016640   0.257102  -0.000245
   46  C 12  X    0.098922   0.000355   0.007755  -0.124712   0.000070
   47  C 12  Y    0.095939   0.000763   0.012639  -0.353721   0.000352
   48  C 12  Z    0.000066  -0.023497   0.000171  -0.000062  -0.019446
   49  C 13  S   -0.062594   0.000149  -0.016700  -0.257097   0.000371
   50  C 13  X   -0.099022   0.000013  -0.007770  -0.124587   0.000207
   51  C 13  Y    0.096189  -0.000387   0.012704   0.353547  -0.000460
   52  C 13  Z    0.000004  -0.023495   0.000190  -0.000066   0.019412
   53  C 14  S    0.118080  -0.115083   0.027498   0.152134   0.038357
   54  C 14  X    0.097111  -0.114735  -0.015509   0.009379   0.045552
   55  C 14  Y   -0.165853   0.114480  -0.042899  -0.168845  -0.049017
   56  C 14  Z   -0.141190   0.163336  -0.039518  -0.017701  -0.074774
   57  C 15  S    0.117787   0.115744   0.025791  -0.152099   0.038768
   58  C 15  X   -0.096962  -0.114701   0.017211   0.009413  -0.045679
   59  C 15  Y   -0.165422  -0.115466  -0.041140   0.168940  -0.049519
   60  C 15  Z    0.140792   0.164151   0.037096  -0.017686   0.074885
   61  C 16  S   -0.036127  -0.135127   0.037514   0.024390  -0.031942
   62  C 16  X    0.062123   0.166313  -0.046114   0.011238   0.094760
   63  C 16  Y    0.094948   0.143189   0.031617  -0.051667   0.083277
   64  C 16  Z   -0.065897  -0.024053   0.029975   0.009914  -0.004387
   65  C 17  S   -0.063794  -0.001933  -0.139922   0.052932  -0.040259
   66  C 17  X    0.039650   0.024815   0.147600  -0.078128   0.011987
   67  C 17  Y   -0.036528  -0.065736  -0.072279   0.051507  -0.044405
   68  C 17  Z   -0.075606  -0.082844  -0.029807   0.063941  -0.031956
   69  C 18  S   -0.084271  -0.078534  -0.075921  -0.000125   0.000119
   70  C 18  X   -0.000055   0.000109   0.000039  -0.128562   0.055222
   71  C 18  Y    0.153559   0.146311   0.046023   0.000156  -0.000069
   72  C 18  Z   -0.062033  -0.040742  -0.115477  -0.000067   0.000087
   73  C 19  S   -0.087832  -0.085775   0.027883  -0.000071   0.000019
   74  C 19  X    0.000026   0.000158   0.000025  -0.097937   0.083648
   75  C 19  Y   -0.091593  -0.058925  -0.050547  -0.000055   0.000117
   76  C 19  Z   -0.212885  -0.211731   0.093788  -0.000068  -0.000084
   77  C 20  S    0.117306   0.077157   0.030315  -0.106730   0.097244
   78  C 20  X   -0.086634  -0.056334  -0.056422   0.033379  -0.035523
   79  C 20  Y    0.064145   0.059320  -0.042286  -0.052980   0.096489
   80  C 20  Z    0.207435   0.211523  -0.009555  -0.088771   0.134237
   81  C 21  S    0.117884   0.115365   0.025793   0.152420  -0.038930
   82  C 21  X    0.096765   0.114522  -0.017271   0.009609  -0.045630
   83  C 21  Y   -0.165484  -0.115031  -0.041096  -0.169050   0.049703
   84  C 21  Z    0.140850   0.164329   0.036996   0.018093  -0.075094
   85  C 22  S   -0.056601  -0.018322   0.080837  -0.108567   0.171115
   86  C 22  X   -0.076203  -0.030128   0.105105  -0.050747   0.051782
   87  C 22  Y   -0.043099  -0.021957   0.068144  -0.086107   0.264462
   88  C 22  Z   -0.039775  -0.052166  -0.025386  -0.080682   0.243441
   89  C 23  S   -0.056635  -0.018585   0.080604   0.108628  -0.171191
   90  C 23  X    0.076214   0.030277  -0.104980  -0.050855   0.052050
   91  C 23  Y   -0.043287  -0.022114   0.067688   0.085989  -0.264350
   92  C 23  Z   -0.039884  -0.052259  -0.025780   0.080578  -0.243353
   93  C 24  S   -0.063860  -0.001835  -0.139805  -0.052815   0.040514
   94  C 24  X   -0.039848  -0.024652  -0.147533  -0.078138   0.012191
   95  C 24  Y   -0.036544  -0.065662  -0.072197  -0.051694   0.044497
   96  C 24  Z   -0.075761  -0.082733  -0.029891  -0.064152   0.032113
   97  C 25  S    0.117382   0.076944   0.030176   0.106763  -0.097399
   98  C 25  X    0.086422   0.056015   0.056361   0.033314  -0.035555
   99  C 25  Y    0.064057   0.059132  -0.042376   0.052971  -0.096376
  100  C 25  Z    0.207409   0.211280  -0.009584   0.089157  -0.134441
  101  C 26  S   -0.036074  -0.135059   0.037491  -0.024854   0.031874
  102  C 26  X   -0.062019  -0.166528   0.046038   0.010756   0.094741
  103  C 26  Y    0.094882   0.143051   0.031608   0.052012  -0.083356
  104  C 26  Z   -0.065992  -0.024228   0.029961  -0.009932   0.004542
  105  C 27  S    0.117767  -0.076707   0.031410   0.106762   0.097140
  106  C 27  X    0.086914  -0.055390   0.057261   0.033316   0.035436
  107  C 27  Y    0.064360  -0.059890  -0.041422   0.053074   0.096450
  108  C 27  Z   -0.208026   0.211439   0.006415  -0.088737  -0.133997
  109  C 28  S   -0.064084  -0.000111  -0.139921  -0.052907  -0.040206
  110  C 28  X   -0.040170   0.022751  -0.148001  -0.078078  -0.011851
  111  C 28  Y   -0.036642   0.064623  -0.073214  -0.051549  -0.044225
  112  C 28  Z    0.076140  -0.082415   0.031044   0.063883   0.031901
  113  C 29  S   -0.036092   0.135542   0.035554  -0.024461  -0.031765
  114  C 29  X   -0.062077   0.166858   0.043728   0.011068  -0.094671
  115  C 29  Y    0.095169  -0.142527   0.033708   0.051764   0.083088
  116  C 29  Z    0.065961  -0.024278  -0.029595   0.009887   0.004305
  117  C 30  S    0.014606   0.001548   0.215337   0.034184  -0.000178
  118  C 30  X   -0.017352   0.002230   0.317462   0.098110  -0.000234
  119  C 30  Y   -0.036710   0.000975   0.132843   0.008494  -0.000049
  120  C 30  Z   -0.000055   0.026776  -0.000094   0.000086  -0.025528

     ----------------------------------------------------------------
     PROPERTY VALUES FOR THE RHF   SELF-CONSISTENT FIELD WAVEFUNCTION
     ----------------------------------------------------------------

                    -------------
                    MOPAC CHARGES
                    -------------
         ATOM NO.   TYPE          CHARGE        ATOM  ELECTRON DENSITY
           1         C             -0.0448          4.0448
           2         C              0.0298          3.9702
           3         C              0.0160          3.9840
           4         C              0.0163          3.9837
           5         C             -0.0448          4.0448
           6         C             -0.0160          4.0160
           7         C              0.0140          3.9860
           8         C             -0.0128          4.0128
           9         C              0.0110          3.9890
          10         C             -0.0112          4.0112
          11         C              0.0168          3.9832
          12         C             -0.0152          4.0152
          13         C             -0.0154          4.0154
          14         C             -0.0127          4.0127
          15         C             -0.0126          4.0126
          16         C              0.0138          3.9862
          17         C             -0.0159          4.0159
          18         C              0.0168          3.9832
          19         C             -0.0112          4.0112
          20         C              0.0108          3.9892
          21         C             -0.0127          4.0127
          22         C              0.0161          3.9839
          23         C              0.0163          3.9837
          24         C             -0.0159          4.0159
          25         C              0.0108          3.9892
          26         C              0.0139          3.9861
          27         C              0.0108          3.9892
          28         C             -0.0158          4.0158
          29         C              0.0138          3.9862
          30         C              0.0298          3.9702

          ---------------------
          ELECTROSTATIC MOMENTS
          ---------------------

 POINT   1           X           Y           Z (ANGS)      CHARGE
                 0.000000    0.000000    0.000000       -0.00 (A.U.)
         DX          DY          DZ         /D/  (DEBYE)
    -0.000170    0.460763    0.000225    0.460764
 ...... END OF PROPERTY EVALUATION ......
 CPU     0: STEP CPU TIME=     0.05 TOTAL CPU TIME=          0.8 (      0.0 MIN)
 TOTAL WALL CLOCK TIME=          0.9 SECONDS, CPU UTILIZATION IS    98.11%
  $VIB   
          IVIB=   0 IATOM=   0 ICOORD=   0 E=     -129.5145620236
  2.015554967E-04 1.677542915E-04 5.036015357E-05-2.358080155E-04-4.496139331E-05
 -1.887323412E-05-1.047531590E-04 1.173948288E-04 4.887328000E-05 2.873128024E-05
  2.033173577E-04 1.305962857E-04-1.282002547E-04 1.469550869E-04 3.522827954E-05
 -5.132646690E-05 8.481791005E-05-8.541764395E-05-1.764009019E-05-1.197325308E-04
 -3.300221274E-05-7.923453561E-05-8.134627684E-05-4.426420852E-06-3.825091102E-05
  1.054810670E-04-1.992195303E-04 5.993036694E-05-8.805086846E-05-1.326809199E-05
 -5.435620227E-05-1.690239346E-05-1.473598278E-04 4.562009187E-05-1.074214622E-04
 -3.881425214E-05 1.348158051E-05-1.518246105E-04 1.326076148E-05 6.991858387E-05
 -1.067224824E-05-9.142767485E-05-6.004728893E-05 6.175628181E-05 9.279717319E-05
 -1.043153444E-04-9.555494730E-05 4.142519356E-05-3.512639442E-05-7.113564765E-05
  1.087408864E-04-1.329684252E-04-9.603361238E-05 2.858778932E-04-8.088811369E-05
 -8.912443802E-05-8.835020618E-05-7.911761638E-05-8.014007824E-05 2.228755130E-04
  2.052866618E-04 4.550087330E-05-5.223113485E-05 6.833665134E-05 7.818822091E-05
 -8.607648484E-05-3.529927978E-05 2.158906776E-04-1.038392882E-04-4.245035963E-06
  1.242407162E-04 4.266447549E-05 1.457663074E-04 1.305495929E-04 2.063090794E-04
 -1.044524146E-05-2.742474471E-04 1.043321321E-04 1.182878398E-04-4.748696640E-05
 -2.849145315E-04 2.251236501E-05-7.984352902E-05-1.047500707E-04 7.089576653E-05
 -1.058265503E-04-3.177690506E-05 2.016993834E-04 7.845809563E-05 4.064032454E-07
 -1.698856069E-04 4.607634262E-01 2.251738283E-04
 ......END OF GEOMETRY SEARCH......
 CPU     0: STEP CPU TIME=     0.00 TOTAL CPU TIME=          0.8 (      0.0 MIN)
 TOTAL WALL CLOCK TIME=          0.9 SECONDS, CPU UTILIZATION IS    96.43%
                580000  WORDS OF DYNAMIC MEMORY USED
 EXECUTION OF GAMESS TERMINATED NORMALLY 21:02:58 22-MAY-2023    
 DDI: 263640 bytes (0.3 MB / 0 MWords) used by master data server.

 ----------------------------------------
 CPU timing information for all processes
 ========================================
 0: 0.625000 + 0.312500 = 0.937500
 1: 0.640625 + 0.156250 = 0.796875
 2: 0.250000 + 0.328125 = 0.578125
 3: 0.171875 + 0.406250 = 0.578125
 ----------------------------------------
           Disk usage (in bytes)       
 ========================================
 ----------------------------------------
            Local date and time          
 ========================================
22.05.2023 - 21:02:58,97                          
