          *******************************************************
          *                                                     *
          *          GAMESS VERSION = 30 SEP 2022 (R2)          *
          *                                                     *
          *              doi.org/10.1063/5.0005188              *
          *                                                     *
          *************** 64 BIT WINDOWS VERSION ****************

  GAMESS HAS BEEN MADE POSSIBLE WITH IMPORTANT CONTRIBUTIONS FROM
  THE FOLLOWING INDIVIDUALS (IN ALPHABETICAL ORDER):

     IVANA ADAMOVIC, CHRISTINE AIKENS, TOMOKO AKAMA,
     MELISA ALKAN, YURI ALEXEEV, YURIKO AOKI, POOJA ARORA,
     TOSHIO ASADA, ANDREY ASADCHEV, KIM K. BALDRIDGE,
     PRADIPTA BANDYOPADHYAY, TAYLOR A. BARNES, MARIA BARYSZ,
     ROB BELL, JONATHAN BENTZ, COLLEEN BERTONI,
     JERRY A. BOATZ, BRETT BODE, KURT BRORSEN, KURT R. BRORSEN,
     LAIMUTIS BYTAUTAS, CALEB CARLIN, LAURA CARRINGTON,
     GALINA CHABAN, BENOIT CHAMPAGNE, WEI CHEN, MAHITO CHIBA,
     DAN CHIPMAN, CHEOL HO CHOI, TANNER CULPITT,
     DIPAYAN DATTA, PAUL DAY, ALBERT DEFUSCO,
     NUWAN DESILVA, J. EMILIANO DEUSTUA,
     TIM DUDLEY, MICHEL DUPUIS, STEVEN T. ELBERT,
     DMITRI FEDOROV, KATHERINE FERRERAS, MICHAEL FILATOV,
     ALEX FINDLATER,GRAHAM FLETCHER, MARK FREITAG,
     CHRISTIAN FRIEDL, DAVID GARMER, 
     IGOR S. GERASIMOV, KURT GLAESEMANN,
     MARK S. GORDON, JEFFREY GOUR, FENG LONG GU,
     EMILIE B. GUIDEZ, ANASTASIA GUNINA, SHARON HAMMES-SCHIFFER,
     MASATAKE HARUTA, KIMIHIKO HIRAO, YASUHIRO IKABATA,
     TZVETELIN IORDANOV, STEPHAN IRLE, KAZUYA ISHIMURA,
     JOE IVANIC, FRANK JENSEN, JAN H. JENSEN, VISVALDAS KAIRYS,
     MUNEAKI KAMIYA, MICHIO KATOUDA, NAOAKI KAWAKAMI, DAN KEMP,
     BERNARD KIRTMAN, KAZUO KITAURA, MARIUSZ KLOBUKOWSKI,
     MASATO KOBAYASHI, KONSTANTIN KOMAROV, PRAKASHAN KORAMBATH,
     JACEK KORCHOWIEC, SHIRO KOSEKI, KAROL KOWALSKI,
     JIMMY KROMANN, STANISLAW KUCHARSKI, HENRY KURTZ,
     SAROM SOK LEANG, SEUNGHOON LEE, HUI LI, SHUHUA LI, WEI LI,
     JESSE LUTZ, ALEKSANDR O. LYKHIN, MARCIN MAKOWSKI,
     JOANI MATO, NIKITA MATSUNAGA, BENEDETTA MENNUCCI,
     GRANT MERRILL, NORIYUKI MINEZAWA, VLADIMIR MIRONOV,
     EISAKU MIYOSHI, JOHN A. MONTGOMERY JR., HIROTOSHI MORI,
     JONATHAN MULLIN, MONIKA MUSIAL, SHIGERU NAGASE,
     TAKESHI NAGATA, HIROMI NAKAI, TAKAHITO NAKAJIMA,
     YUYA NAKAJIMA, HARUYUKI NAKANO, HIROYA NAKATA, SEAN NEDD,
     HEATHER NETZLOFF, KIET A. NGUYEN, YOSHIO NISHIMOTO,
     BOSILJKA NJEGIC, RYAN OLSON, MIKE PAK, ROBERTO PEVERATI,
     BUU PHAM, PIOTR PIECUCH, ANNA POMOGAEVA, DAVID POOLE,
     SPENCER PRUITT, OLIVIER QUINET, LUKE ROSKOP,
     KLAUS RUEDENBERG, ANDREW SAND, TOSAPORN SATTASATHUCHANA,
     NOZOMI SAWADA, MICHAEL W. SCHMIDT, PATRICK E. SCHNEIDER,
     JUNJI SEINO, PRACHI SHARMA, JUN SHEN, JIM SHOEMAKER,
     YINAN SHU, DEJUN SI, JONATHAN SKONE, LYUDMILA SLIPCHENKO,
     TONY SMITH, JIE SONG, MARK SPACKMAN, CASPER STEINMANN,
     WALT STEVENS, PEIFENG SU, SHUJUN SU, CHET SWALINA,
     CHINAMI TAKASHIMA, TETSUYA TAKETSUGU, ZHEN TAO,
     NANDUN THELLAMUREGE, SEIKEN TOKURA, JACOPO TOMASI,
     TSUGUKI TOUMA, TAKAO TSUNEDA, HIROAKI UMEDA,
     JORGE LUIS GALVEZ VALLEJO, YALI WANG, SIMON WEBB,
     AARON WEST, THERESA L. WINDUS, MARTA WLOCH,
     PENG XU, KIYOSHI YAGI, SUSUMU YANAGISAWA, YANG YANG,
     SOOHAENG YOO, TAKESHI YOSHIKAWA, FEDERICO ZAHARIEV,
     TOBY ZENG

  WHO ARE SUPPORTED BY THEIR INSTITUTION/UNIVERSITY/COMPANY/GROUP
  (IN ALPHABETICAL ORDER):

     EP ANALYTICS,
     FACULTES UNIVERSITAIRES NOTRE-DAME DE LA PAIX,
     INSTITUTE FOR MOLECULAR SCIENCE, IOWA STATE UNIVERSITY,
     JACKSON STATE UNIVERSITY, JOHANNES KEPLER UNIVERSITY LINZ,
     KYUNGPOOK NATIONAL UNIVERSITY
     KYUSHU UNIVERSITY, MICHIGAN STATE UNIVERSITY,
     MIE UNIVERSITY, THE MOLECULAR SCIENCES SOFTWARE INSTITUTE,
     MOSCOW STATE UNIVERSITY,
     N. COPERNICUS UNIVERSITY, NAGOYA UNIVERSITY,
     NANJING UNIVERSITY, NAT. INST. OF ADVANCED INDUSTRIAL
     SCIENCE AND TECHNOLOGY, NATIONAL INST. OF STANDARDS AND
     TECHNOLOGY, NESMEYANOV INSTITUTE OF ORGANOELEMENT COMPOUNDS
     OF RUSSIAN ACADEMY OF SCIENCES, OSAKA PREFECTURE UNIVERSITY,
     PENNSYLVANIA STATE UNIVERSITY, TOKYO INSTITUTE OF TECHNOLOGY,
     UNIVERSITY OF AARHUS, UNIVERSITY OF ALBERTA,
     UNIVERSITY OF CALIFORNIA AT SANTA BARBARA,
     UNIVERSITY OF COPENHAGEN, UNIVERSITY OF IOWA,
     UNIVERSITY OF MEMPHIS, UNIVERSITY OF MINNESOTA,
     UNIVERSITY OF NEBRASKA, UNIVERSITY OF NEW ENGLAND,
     UNIVERSITY OF NOTRE DAME, UNIVERSITY OF PISA,
     UNIVERSITY OF SILESIA, UNIVERSITY OF TOKYO,
     UNIVERSITY OF ZURICH, WASEDA UNIVERSITY,
     YALE UNIVERSITY

  GAMESS SOFTWARE MANAGEMENT TEAM FOR THIS RELEASE:
     MARK S. GORDON (TEAM LEAD),
     BRETT BODE (SENIOR ADVISOR),
     GIUSEPPE BARCA,
     COLLEEN BERTONI,
     KRISTOPHER KEIPERT (ADVISOR),
     SAROM S. LEANG (DEVELOPMENT LEAD),
     BUU PHAM,
     JACKSON HAYES (WEBSITE ADMINISTRATOR),
     PENG XU


 PARALLEL VERSION RUNNING ON        2 PROCESSORS IN        2 NODES.

 EXECUTION OF GAMESS BEGUN 21:02:48 22-MAY-2023    

            ECHO OF THE FIRST FEW INPUT CARDS -
 INPUT CARD>! (Energy/Geometry) PM3                                                         
 INPUT CARD> $CONTRL                                                                        
 INPUT CARD>COORD=UNIQUE                                                                    
 INPUT CARD>ICHARG=0                                                                        
 INPUT CARD>MAXIT=200                                                                       
 INPUT CARD>MULT=1                                                                          
 INPUT CARD>RUNTYP=OPTIMIZE                                                                 
 INPUT CARD>SCFTYP=RHF                                                                      
 INPUT CARD>UNITS=ANGS                                                                      
 INPUT CARD>! DFTTYP=PBE                                                                    
 INPUT CARD> $END                                                                           
 INPUT CARD> $DFT                                                                           
 INPUT CARD>METHOD=GRID                                                                     
 INPUT CARD> $END                                                                           
 INPUT CARD> $BASIS                                                                         
 INPUT CARD>! EXTFIL=.T.                                                                    
 INPUT CARD>! GBASIS=GEGSSBAS                                                               
 INPUT CARD>! NGAUSS=6                                                                      
 INPUT CARD>GBASIS=PM3                                                                      
 INPUT CARD>! NDFUNC=1                                                                      
 INPUT CARD>! NPFUNC=1                                                                      
 INPUT CARD> $END                                                                           
 INPUT CARD> $SCF                                                                           
 INPUT CARD>DAMP=.F.                                                                        
 INPUT CARD>DEM=.F.                                                                         
 INPUT CARD>DIIS=.F.                                                                        
 INPUT CARD>DIRSCF=.T.                                                                      
 INPUT CARD>EXTRAP=.T.                                                                      
 INPUT CARD>RSTRCT=.F.                                                                      
 INPUT CARD>SHIFT=.F.                                                                       
 INPUT CARD>SOSCF=.T.                                                                       
 INPUT CARD> $END                                                                           
 INPUT CARD> $STATPT                                                                        
 INPUT CARD>METHOD=QA                                                                       
 INPUT CARD>NSTEP=100                                                                       
 INPUT CARD>OPTTOL=0.001                                                                    
 INPUT CARD> $END                                                                           
 INPUT CARD> $GUESS                                                                         
 INPUT CARD>GUESS=HUCKEL                                                                    
 INPUT CARD> $END                                                                           
 INPUT CARD> $SYSTEM                                                                        
 INPUT CARD>MWORDS=10                                                                       
 INPUT CARD> $END                                                                           
 INPUT CARD> $DATA                                                                          
 INPUT CARD>C30 FULLERENE                                                                   
 INPUT CARD>C1                                                                              
 INPUT CARD>C	6.0	2.49320	-1.09850	0.26300                                                  
 INPUT CARD>C	6.0	1.42150	-1.88500	0.62960                                                  
 INPUT CARD>C	6.0	2.54240	0.00380	1.06690                                                   
 INPUT CARD>C	6.0	-0.70540	-1.18660	1.61310                                                 
     10000000 WORDS OF MEMORY AVAILABLE

     BASIS OPTIONS
     -------------
     GBASIS=PM3          IGAUSS=       0      POLAR=NONE    
     NDFUNC=       0     NFFUNC=       0     DIFFSP=       F
     NPFUNC=       0      DIFFS=       F     BASNAM=        


     RUN TITLE
     ---------
 C30 FULLERENE                                                                   

 THE POINT GROUP OF THE MOLECULE IS C1      
 THE ORDER OF THE PRINCIPAL AXIS IS     0

 ATOM      ATOMIC                      COORDINATES (BOHR)
           CHARGE         X                   Y                   Z
 C           6.0     4.7114648326       -2.0758639975        0.4969979348
 C           6.0     2.6862454915       -3.5621334869        1.1897714819
 C           6.0     4.8044393512        0.0071809588        2.0161486563
 C           6.0    -1.3330127117       -2.2423488570        3.0483169908
 C           6.0     1.3273435338       -2.2315774189        3.0813871956
 C           6.0     2.6514745334        0.0349599308        3.4398682155
 C           6.0    -2.7009853543       -3.6086207462        1.1852361395
 C           6.0     4.7218583255        2.0894700246        0.4986986882
 C           6.0    -1.3326347665        2.2710726920        3.0632458261
 C           6.0     1.3354693555        2.3060326228        3.0853556202
 C           6.0     2.7145913814        3.6072979380        1.1948737420
 C           6.0    -2.7064655596        0.0109604107        3.3578541076
 C           6.0     4.3278504571        1.2810452471       -1.9560553699
 C           6.0     4.3216143613       -1.3354693555       -1.9821335885
 C           6.0     2.1627913929       -2.5624684394       -2.8196601463
 C           6.0     2.1584450232        2.5231621388       -2.7697713802
 C           6.0     0.0245664378        1.3222412736       -3.7832314274
 C           6.0     0.0145508901       -1.3649490809       -3.8300966319
 C           6.0    -1.2744312061        4.1938688846       -0.8783446391
 C           6.0     1.3005094248        4.1957586105       -0.9057456659
 C           6.0    -2.7423703534        3.6080538284        1.2133930567
 C           6.0    -1.2829349731       -4.1766723781       -0.9391938159
 C           6.0     1.2878482606       -4.1857430628       -0.9167060766
 C           6.0    -2.1244299554       -2.5535867272       -2.8064320644
 C           6.0    -2.0881472164        2.5159811801       -2.7353783672
 C           6.0    -4.2157897060        1.2972968906       -1.8453174270
 C           6.0    -4.2346869659       -1.3256427804       -1.8734743442
 C           6.0    -4.7842192831        2.1164931062        0.5826025220
 C           6.0    -4.9548615398       -0.0224877393        2.0186053001
 C           6.0    -4.7806288037       -2.1297211882        0.5686185497

          INTERNUCLEAR DISTANCES (ANGS.)
          ------------------------------

                1 C          2 C          3 C          4 C          5 C     

   1 C       0.0000000    1.3789557 *  1.3651890 *  3.4729776    2.2547914 *
   2 C       1.3789557 *  0.0000000    2.2394672 *  2.4451459 *  1.4194586 *
   3 C       1.3651890 *  2.2394672 *  0.0000000    3.5019411    2.2598389 *
   4 C       3.4729776    2.4451459 *  3.5019411    0.0000000    1.4079203 *
   5 C       2.2547914 *  1.4194586 *  2.2598389 *  1.4079203 *  0.0000000  
   6 C       2.2048107 *  2.2453101 *  1.3659547 *  2.4374105 *  1.4019725 *
   7 C       4.0220059    2.8509071 *  4.4304443    1.4208304 *  2.4661630 *
   8 C       2.2042070 *  3.1997473    1.3641489 *  4.1642811    3.2129585  
   9 C       4.1671701    3.8773781    3.5055865    2.3884131 *  2.7674337 *
  10 C       3.2317942    3.3406641    2.2737186 *  2.7906233 *  2.4012048 *
  11 C       3.2089643    3.7939306    2.2452835 *  3.8899646    3.3290193  
  12 C       4.3497284    3.6104052    4.0375177    1.4060179 *  2.4466667 *
  13 C       2.2094953 *  3.1771563    2.2218055 *  4.4116825    3.6169328  
  14 C       1.3846113 *  2.2259089 *  2.2464862 *  4.0336593    3.1488452  
  15 C       2.2283792 *  2.2041281 *  3.2173998    3.6184380    3.1586972  
  16 C       3.2766599    3.8520097    3.1854747    4.3877227    4.0138830  
  17 C       3.8098741    3.9484003    4.0373616    4.1404317    4.1482179  
  18 C       3.4003560    3.2260134    4.0648376    3.7380420    3.7509328  
  19 C       4.6444784    4.7366430    4.1955152    3.9898351    4.2246467  
  20 C       3.8501257    4.3151913    3.2774478    4.2340555    4.0025044  
  21 C       4.9748235    4.7591253    4.4452476    3.3292124    3.8941573  
  22 C       3.4461131    2.4055483 *  4.2100300    2.3454171 *  2.7375409 *
  23 C       2.2557666 *  1.3780624 *  3.2855329    2.7172673 *  2.3549917 *
  24 C       4.0255862    3.3522202    4.6682926    3.1307128    3.6156729  
  25 C       4.6666120    4.5872405    4.6247439    3.9833750    4.3649795  
  26 C       5.1999717    4.7468090    5.2369796    3.5414237    4.3460789  
  27 C       4.9135355    4.1763006    5.2549030    3.0621075    3.9708593  
  28 C       5.4930333    4.9760475    5.2505111    3.2184279    4.1835417  
  29 C       5.2909657    4.4778081    5.1644240    2.3130481 *  3.5685417  
  30 C       5.0232238    4.0367536    5.2528733    2.2480784 *  3.4954433  

                6 C          7 C          8 C          9 C         10 C     

   1 C       2.2048107 *  4.0220059    2.2042070 *  4.1671701    3.2317942  
   2 C       2.2453101 *  2.8509071 *  3.1997473    3.8773781    3.3406641  
   3 C       1.3659547 *  4.4304443    1.3641489 *  3.5055865    2.2737186 *
   4 C       2.4374105 *  1.4208304 *  4.1642811    2.3884131 *  2.7906233 *
   5 C       1.4019725 *  2.4661630 *  3.2129585    2.7674337 *  2.4012048 *
   6 C       0.0000000    3.6281603    2.1919681 *  2.4258706 *  1.4016026 *
   7 C       3.6281603    0.0000000    4.9651994    3.3455596    3.9204337  
   8 C       2.1919681 *  4.9651994    0.0000000    3.4807946    2.2578775 *
   9 C       2.4258706 *  3.3455596    3.4807946    0.0000000    1.4120697 *
  10 C       1.4016026 *  3.9204337    2.2578775 *  1.4120697 *  0.0000000  
  11 C       2.2329513 *  4.7742830    1.3817082 *  2.4625996 *  1.4168903 *
  12 C       2.8356606 *  2.2339596 *  4.3532659    1.4082790 *  2.4638785 *
  13 C       3.0618726    4.8262903    1.3834327 *  4.0375438    3.1494169  
  14 C       3.0885800    4.2504614    2.2479094 *  4.4411035    3.6607840  
  15 C       3.5955692    3.3796970    3.3132100    4.4334098    4.0734955  
  16 C       3.5495864    4.6391346    2.2100404 *  3.5997777    3.1309655  
  17 C       4.1238803    3.9750935    3.3878966    3.7274716    3.7367483  
  18 C       4.1588585    3.2432031    3.8462932    4.1853115    4.2016944  
  19 C       3.7922564    4.3370674    3.4408825    2.3209516 *  2.7027661 *
  20 C       3.2629994    4.7711867    2.2522410 *  2.7184860 *  2.3368539 *
  21 C       3.6208160    3.8189919    4.0485205    1.4196188 *  2.4723555 *
  22 C       3.8303664    1.3846610 *  4.6552447    4.0160129    4.2689389  
  23 C       3.2899997    2.4054016 *  3.8587907    4.2465417    4.0357153  
  24 C       4.3805555    2.2060363 *  4.7139426    4.0424915    4.4368906  
  25 C       4.3235158    3.8618171    3.9958083    3.0971484    3.5752248  
  26 C       4.6340339    3.1550200    4.9074878    3.0561906    3.9651432  
  27 C       4.6586256    2.1767099 *  5.2254720    3.5784856    4.3894831  
  28 C       4.3568449    3.2396696    5.0306163    2.2507720 *  3.5001900  
  29 C       4.0948759    2.2843554 *  5.3025934    2.3351184 *  3.5940535  
  30 C       4.3690330    1.3892569 *  5.5020115    3.2396201    4.2140765  

               11 C         12 C         13 C         14 C         15 C     

   1 C       3.2089643    4.3497284    2.2094953 *  1.3846113 *  2.2283792 *
   2 C       3.7939306    3.6104052    3.1771563    2.2259089 *  2.2041281 *
   3 C       2.2452835 *  4.0375177    2.2218055 *  2.2464862 *  3.2173998  
   4 C       3.8899646    1.4060179 *  4.4116825    4.0336593    3.6184380  
   5 C       3.3290193    2.4466667 *  3.6169328    3.1488452    3.1586972  
   6 C       2.2329513 *  2.8356606 *  3.0618726    3.0885800    3.5955692  
   7 C       4.7742830    2.2339596 *  4.8262903    4.2504614    3.3796970  
   8 C       1.3817082 *  4.3532659    1.3834327 *  2.2479094 *  3.3132100  
   9 C       2.4625996 *  1.4082790 *  4.0375438    4.4411035    4.4334098  
  10 C       1.4168903 *  2.4638785 *  3.1494169    3.6607840    4.0734955  
  11 C       0.0000000    3.6278559    2.2415145 *  3.2235038    3.9061377  
  12 C       3.6278559    0.0000000    4.7133135    4.7248817    4.3795254  
  13 C       2.2415145 *  4.7133135    0.0000000    1.3846727 *  2.3787027 *
  14 C       3.2235038    4.7248817    1.3846727 *  0.0000000    1.3867568 *
  15 C       3.9061377    4.3795254    2.3787027 *  1.3867568 *  0.0000000  
  16 C       2.1948458 *  4.3484819    1.3911735 *  2.3776913 *  2.6913305 *
  17 C       3.2292497    4.1048977    2.4740676 *  2.8384823 *  2.4012898 *
  18 C       4.0044345    4.1317763    2.8554921 *  2.4801783 *  1.4070515 *
  19 C       2.3991406 *  3.2402256    3.3896916    4.2038014    4.1408348  
  20 C       1.3757098 *  3.8066448    2.2922294 *  3.3834324    3.7448492  
  21 C       2.8877167 *  2.2161779 *  4.2810536    4.8658328    4.6855792  
  22 C       4.7662585    3.2632404    4.1768682    3.3706195    2.2460341 *
  23 C       4.3387969    3.8100294    3.3554860    2.2737961 *  1.4022478 *
  24 C       4.6550479    3.5464388    3.9972841    3.4987688    2.2687157 *
  25 C       3.3344110    3.5015754    3.4820280    3.9771496    3.5049049  
  26 C       4.1871616    2.9466058 *  4.5214879    4.7282941    3.9788157  
  27 C       4.7931055    2.9694703 *  4.7366150    4.5281681    3.4842508  
  28 C       4.0588115    2.1464221 *  5.0250269    5.3289521    4.7839798  
  29 C       4.5111976    1.3849885 *  5.3878942    5.3909330    4.7485011  
  30 C       5.0058017    2.1602170 *  5.3174204    5.0198816    4.0948468  

               16 C         17 C         18 C         19 C         20 C     

   1 C       3.2766599    3.8098741    3.4003560    4.6444784    3.8501257  
   2 C       3.8520097    3.9484003    3.2260134    4.7366430    4.3151913  
   3 C       3.1854747    4.0373616    4.0648376    4.1955152    3.2774478  
   4 C       4.3877227    4.1404317    3.7380420    3.9898351    4.2340555  
   5 C       4.0138830    4.1482179    3.7509328    4.2246467    4.0025044  
   6 C       3.5495864    4.1238803    4.1588585    3.7922564    3.2629994  
   7 C       4.6391346    3.9750935    3.2432031    4.3370674    4.7711867  
   8 C       2.2100404 *  3.3878966    3.8462932    3.4408825    2.2522410 *
   9 C       3.5997777    3.7274716    4.1853115    2.3209516 *  2.7184860 *
  10 C       3.1309655    3.7367483    4.2016944    2.7027661 *  2.3368539 *
  11 C       2.1948458 *  3.2292497    4.0044345    2.3991406 *  1.3757098 *
  12 C       4.3484819    4.1048977    4.1317763    3.2402256    3.8066448  
  13 C       1.3911735 *  2.4740676 *  2.8554921 *  3.3896916    2.2922294 *
  14 C       2.3776913 *  2.8384823 *  2.4801783 *  4.2038014    3.3834324  
  15 C       2.6913305 *  2.4012898 *  1.4070515 *  4.1408348    3.7448492  
  16 C       0.0000000    1.4023447 *  2.4156220 *  2.2546550 *  1.4008936 *
  17 C       1.4023447 *  0.0000000    1.4222261 *  2.2681902 *  2.2553791 *
  18 C       2.4156220 *  1.4222261 *  0.0000000    3.3997228    3.3936310  
  19 C       2.2546550 *  2.2681902 *  3.3997228    0.0000000    1.3626775 *
  20 C       1.4008936 *  2.2553791 *  3.3936310    1.3626775 *  0.0000000  
  21 C       3.3908900    3.2554997    4.0220312    1.3873521 *  2.4354243 *
  22 C       4.1017857    3.3483233    2.2417747 *  4.4296193    4.6366589  
  23 C       3.7118379    3.3531111    2.2492218 *  4.6370134    4.4353089  
  24 C       3.5148581    2.4014601 *  1.4036657 *  3.7406572    4.1294980  
  25 C       2.2472769 *  1.3987277 *  2.4065273 *  1.3926529 *  2.2233130 *
  26 C       3.4695723    2.4671667 *  2.8459054 *  2.2436588 *  3.3348006  
  27 C       3.9772444    2.8398484 *  2.4756187 *  3.3559354    4.1687874  
  28 C       4.0854532    3.4626054    3.9109224    2.2925330 *  3.4926680  
  29 C       4.7333423    4.1080077    4.1229862    3.3348895    4.2819268  
  30 C       4.7609756    3.8866455    3.4671134    3.9021186    4.7083599  

               21 C         22 C         23 C         24 C         25 C     

   1 C       4.9748235    3.4461131    2.2557666 *  4.0255862    4.6666120  
   2 C       4.7591253    2.4055483 *  1.3780624 *  3.3522202    4.5872405  
   3 C       4.4452476    4.2100300    3.2855329    4.6682926    4.6247439  
   4 C       3.3292124    2.3454171 *  2.7172673 *  3.1307128    3.9833750  
   5 C       3.8941573    2.7375409 *  2.3549917 *  3.6156729    4.3649795  
   6 C       3.6208160    3.8303664    3.2899997    4.3805555    4.3235158  
   7 C       3.8189919    1.3846610 *  2.4054016 *  2.2060363 *  3.8618171  
   8 C       4.0485205    4.6552447    3.8587907    4.7139426    3.9958083  
   9 C       1.4196188 *  4.0160129    4.2465417    4.0424915    3.0971484  
  10 C       2.4723555 *  4.2689389    4.0357153    4.4368906    3.5752248  
  11 C       2.8877167 *  4.7662585    4.3387969    4.6550479    3.3344110  
  12 C       2.2161779 *  3.2632404    3.8100294    3.5464388    3.5015754  
  13 C       4.2810536    4.1768682    3.3554860    3.9972841    3.4820280  
  14 C       4.8658328    3.3706195    2.2737961 *  3.4987688    3.9771496  
  15 C       4.6855792    2.2460341 *  1.4022478 *  2.2687157 *  3.5049049  
  16 C       3.3908900    4.1017857    3.7118379    3.5148581    2.2472769 *
  17 C       3.2554997    3.3483233    3.3531111    2.4014601 *  1.3987277 *
  18 C       4.0220312    2.2417747 *  2.2492218 *  1.4036657 *  2.4065273 *
  19 C       1.3873521 *  4.4296193    4.6370134    3.7406572    1.3926529 *
  20 C       2.4354243 *  4.6366589    4.4353089    4.1294980    2.2233130 *
  21 C       0.0000000    4.3433025    4.7779535    3.9068429    2.1955070 *
  22 C       4.3433025    0.0000000    1.3604605 *  1.3828749 *  3.6916043  
  23 C       4.7779535    1.3604605 *  0.0000000    2.2375277 *  4.0859208  
  24 C       3.9068429    1.3828749 *  2.2375277 *  0.0000000    2.6830322 *
  25 C       2.1955070 *  3.6916043    4.0859208    2.6830322 *  0.0000000  
  26 C       2.1732551 *  3.3210684    4.1403200    2.3740446 *  1.3803579 *
  27 C       3.1793435    2.2272070 *  3.3297813    1.3831119 *  2.3729683 *
  28 C       1.3790929 *  3.8950748    4.6985490    3.3622408    2.2722228 *
  29 C       2.2898348 *  3.3253589    4.2637428    3.2491134    3.2302462  
  30 C       3.2402026    2.2881865 *  3.4805154    2.2838165 *  3.3362686  

               26 C         27 C         28 C         29 C         30 C     

   1 C       5.1999717    4.9135355    5.4930333    5.2909657    5.0232238  
   2 C       4.7468090    4.1763006    4.9760475    4.4778081    4.0367536  
   3 C       5.2369796    5.2549030    5.2505111    5.1644240    5.2528733  
   4 C       3.5414237    3.0621075    3.2184279    2.3130481 *  2.2480784 *
   5 C       4.3460789    3.9708593    4.1835417    3.5685417    3.4954433  
   6 C       4.6340339    4.6586256    4.3568449    4.0948759    4.3690330  
   7 C       3.1550200    2.1767099 *  3.2396696    2.2843554 *  1.3892569 *
   8 C       4.9074878    5.2254720    5.0306163    5.3025934    5.5020115  
   9 C       3.0561906    3.5784856    2.2507720 *  2.3351184 *  3.2396201  
  10 C       3.9651432    4.3894831    3.5001900    3.5940535    4.2140765  
  11 C       4.1871616    4.7931055    4.0588115    4.5111976    5.0058017  
  12 C       2.9466058 *  2.9694703 *  2.1464221 *  1.3849885 *  2.1602170 *
  13 C       4.5214879    4.7366150    5.0250269    5.3878942    5.3174204  
  14 C       4.7282941    4.5281681    5.3289521    5.3909330    5.0198816  
  15 C       3.9788157    3.4842508    4.7839798    4.7485011    4.0948468  
  16 C       3.4695723    3.9772444    4.0854532    4.7333423    4.7609756  
  17 C       2.4671667 *  2.8398484 *  3.4626054    4.1080077    3.8866455  
  18 C       2.8459054 *  2.4756187 *  3.9109224    4.1229862    3.4671134  
  19 C       2.2436588 *  3.3559354    2.2925330 *  3.3348895    3.9021186  
  20 C       3.3348006    4.1687874    3.4926680    4.2819268    4.7083599  
  21 C       2.1732551 *  3.1793435    1.3790929 *  2.2898348 *  3.2402026  
  22 C       3.3210684    2.2272070 *  3.8950748    3.3253589    2.2881865 *
  23 C       4.1403200    3.3297813    4.6985490    4.2637428    3.4805154  
  24 C       2.3740446 *  1.3831119 *  3.3622408    3.2491134    2.2838165 *
  25 C       1.3803579 *  2.3729683 *  2.2722228 *  3.2302462    3.3362686  
  26 C       0.0000000    1.3881160 *  1.3889255 *  2.1957960 *  2.2382748 *
  27 C       1.3881160 *  0.0000000    2.2564678 *  2.2051616 *  1.3908820 *
  28 C       1.3889255 *  2.2564678 *  0.0000000    1.3663088 *  2.2470130 *
  29 C       2.1957960 *  2.2051616 *  1.3663088 *  0.0000000    1.3567233 *
  30 C       2.2382748 *  1.3908820 *  2.2470130 *  1.3567233 *  0.0000000  

  * ... LESS THAN  3.000


 TOTAL NUMBER OF BASIS SET SHELLS             =   30
 NUMBER OF CARTESIAN GAUSSIAN BASIS FUNCTIONS =  120
 NUMBER OF ELECTRONS                          =  120
 CHARGE OF MOLECULE                           =    0
 SPIN MULTIPLICITY                            =    1
 NUMBER OF OCCUPIED ORBITALS (ALPHA)          =   60
 NUMBER OF OCCUPIED ORBITALS (BETA )          =   60
 TOTAL NUMBER OF ATOMS                        =   30
 THE NUCLEAR REPULSION ENERGY IS     2853.9994638935

 THE PARAMETERS USED IN THIS CALCULATION ARE DESCRIBED IN:

  C: (PM3): J. J. P. STEWART, J. COMP. CHEM. 10, 209 (1989).                    

 THERE ARE   30 HEAVY AND    0 LIGHT ATOMS,
 YIELDING A TOTAL OF     43500 MOPAC 2E- INTEGRALS.

     $CONTRL OPTIONS
     ---------------
 SCFTYP=RHF          RUNTYP=OPTIMIZE     EXETYP=RUN     
 MPLEVL=       0     CITYP =NONE         CCTYP =NONE         VBTYP =NONE    
 DFTTYP=NONE         TDDFT =NONE    
 MULT  =       1     ICHARG=       0     NZVAR =       0     COORD =UNIQUE  
 PP    =NONE         RELWFN=NONE         LOCAL =NONE         NUMGRD=       F
 ISPHER=      -1     NOSYM =       0     MAXIT =     200     UNITS =ANGS    
 PLTORB=       F     MOLPLT=       F     AIMPAC=       F     FRIEND=        
 NPRINT=       7     IREST =       0     GEOM  =INPUT   
 NORMF =       0     NORMP =       0     ITOL  =      20     ICUT  =       9
 INTTYP=BEST         GRDTYP=BEST         QMTTOL= 1.0E-06

     $SYSTEM OPTIONS
     ---------------
  REPLICATED MEMORY=    10000000 WORDS (ON EVERY NODE).
 DISTRIBUTED MEMDDI=           0 MILLION WORDS IN AGGREGATE,
 MEMDDI DISTRIBUTED OVER   2 PROCESSORS IS           0 WORDS/PROCESSOR.
 TOTAL MEMORY REQUESTED ON EACH PROCESSOR=    10000000 WORDS.
 TIMLIM=      525600.00 MINUTES, OR     365.0 DAYS.
 PARALL= T  BALTYP=  DLB     KDIAG=    0  COREFL= F
 MXSEQ2=     300 MXSEQ3=     150  mem10=         0  mem22=         0

          ----------------
          PROPERTIES INPUT
          ----------------

     MOMENTS            FIELD           POTENTIAL          DENSITY
 IEMOM =       1   IEFLD =       0   IEPOT =       0   IEDEN =       0
 WHERE =COMASS     WHERE =NUCLEI     WHERE =NUCLEI     WHERE =NUCLEI  
 OUTPUT=BOTH       OUTPUT=BOTH       OUTPUT=BOTH       OUTPUT=BOTH    
 IEMINT=       0   IEFINT=       0                     IEDINT=       0
                                                       MORB  =       0
          EXTRAPOLATION IN EFFECT
          SOSCF IN EFFECT
 ORBITAL PRINTING OPTION: NPREO=     1   120     2     1

     -------------------------------
     INTEGRAL TRANSFORMATION OPTIONS
     -------------------------------
     NWORD  =            0
     CUTTRF = 1.0E-09     MPTRAN =       0
     DIRTRF =       T     AOINTS =DUP     

          ----------------------
          INTEGRAL INPUT OPTIONS
          ----------------------
 NOPK  =       1 NORDER=       0 SCHWRZ=       T

     ------------------------------------------
     THE POINT GROUP IS C1 , NAXIS= 0, ORDER= 1
     ------------------------------------------

     DIMENSIONS OF THE SYMMETRY SUBSPACES ARE
 A   =  120

 ..... DONE SETTING UP THE RUN .....
 CPU     0: STEP CPU TIME=     0.00 TOTAL CPU TIME=          0.0 (      0.0 MIN)
 TOTAL WALL CLOCK TIME=          0.0 SECONDS, CPU UTILIZATION IS     0.00%


          -----------------------------
          STATIONARY POINT LOCATION RUN
          -----------------------------

 OBTAINING INITIAL HESSIAN, HESS=GUESS   
 CARTESIAN COORDINATE OPTIMIZATION USING BADGER'S RULE FORCE CONSTANT GUESS

          PARAMETERS CONTROLLING GEOMETRY SEARCH ARE
          METHOD =QA                  UPHESS =BFGS    
          NNEG   =         0          NFRZ   =         0
          NSTEP  =       100          IFOLOW =         1
          HESS   =GUESS               RESTAR =         F
          IHREP  =         0          HSSEND =         F
          NPRT   =         0          NPUN   =         0
          OPTTOL = 1.000E-03          RMIN   = 1.500E-03
          RMAX   = 1.000E-01          RLIM   = 7.000E-02
          DXMAX  = 3.000E-01          PURIFY =         F
          MOVIE  =         F          TRUPD  =         T
          TRMAX  = 5.000E-01          TRMIN  = 5.000E-02
          ITBMAT =         5          STPT   =         F
          STSTEP = 1.000E-02          PROJCT=          T

 BEGINNING GEOMETRY SEARCH POINT NSERCH=   0 ...

 COORDINATES OF ALL ATOMS ARE (ANGS)
   ATOM   CHARGE       X              Y              Z
 ------------------------------------------------------------
 C           6.0   2.4932000000  -1.0985000000   0.2630000000
 C           6.0   1.4215000000  -1.8850000000   0.6296000000
 C           6.0   2.5424000000   0.0038000000   1.0669000000
 C           6.0  -0.7054000000  -1.1866000000   1.6131000000
 C           6.0   0.7024000000  -1.1809000000   1.6306000000
 C           6.0   1.4031000000   0.0185000000   1.8203000000
 C           6.0  -1.4293000000  -1.9096000000   0.6272000000
 C           6.0   2.4987000000   1.1057000000   0.2639000000
 C           6.0  -0.7052000000   1.2018000000   1.6210000000
 C           6.0   0.7067000000   1.2203000000   1.6327000000
 C           6.0   1.4365000000   1.9089000000   0.6323000000
 C           6.0  -1.4322000000   0.0058000000   1.7769000000
 C           6.0   2.2902000000   0.6779000000  -1.0351000000
 C           6.0   2.2869000000  -0.7067000000  -1.0489000000
 C           6.0   1.1445000000  -1.3560000000  -1.4921000000
 C           6.0   1.1422000000   1.3352000000  -1.4657000000
 C           6.0   0.0130000000   0.6997000000  -2.0020000000
 C           6.0   0.0077000000  -0.7223000000  -2.0268000000
 C           6.0  -0.6744000000   2.2193000000  -0.4648000000
 C           6.0   0.6882000000   2.2203000000  -0.4793000000
 C           6.0  -1.4512000000   1.9093000000   0.6421000000
 C           6.0  -0.6789000000  -2.2102000000  -0.4970000000
 C           6.0   0.6815000000  -2.2150000000  -0.4851000000
 C           6.0  -1.1242000000  -1.3513000000  -1.4851000000
 C           6.0  -1.1050000000   1.3314000000  -1.4475000000
 C           6.0  -2.2309000000   0.6865000000  -0.9765000000
 C           6.0  -2.2409000000  -0.7015000000  -0.9914000000
 C           6.0  -2.5317000000   1.1200000000   0.3083000000
 C           6.0  -2.6220000000  -0.0119000000   1.0682000000
 C           6.0  -2.5298000000  -1.1270000000   0.3009000000

          ********************
          1 ELECTRON INTEGRALS
          ********************

          **************************
          1 AND 2 ELECTRON INTEGRALS
          **************************

 MOPAC ONE- AND TWO-ELECTRON INTEGRALS REQUIRE     58020 WORDS.
 ...... END OF ONE- AND TWO-ELECTRON INTEGRALS......
 CPU     0: STEP CPU TIME=     0.02 TOTAL CPU TIME=          0.0 (      0.0 MIN)
 TOTAL WALL CLOCK TIME=          0.0 SECONDS, CPU UTILIZATION IS    38.11%
 ...... END OF ONE-ELECTRON INTEGRALS ......
 CPU     0: STEP CPU TIME=     0.00 TOTAL CPU TIME=          0.0 (      0.0 MIN)
 TOTAL WALL CLOCK TIME=          0.0 SECONDS, CPU UTILIZATION IS    38.11%

          -------------
          GUESS OPTIONS
          -------------
          GUESS =HUCKEL            NORB  =       0          NORDER=       0
          MIX   =       F          PRTMO =       F          PUNMO =       F
          TOLZ  = 1.0E-08          TOLE  = 1.0E-05
          SYMDEN=       F          PURIFY=       F

 INITIAL GUESS ORBITALS GENERATED BY HUCKEL   ROUTINE.

 SYMMETRIES FOR INITIAL GUESS ORBITALS FOLLOW.   BOTH SET(S).
    60 ORBITALS ARE OCCUPIED (    0 CORE ORBITALS).
     1=A        2=A        3=A        4=A        5=A        6=A        7=A   
     8=A        9=A       10=A       11=A       12=A       13=A       14=A   
    15=A       16=A       17=A       18=A       19=A       20=A       21=A   
    22=A       23=A       24=A       25=A       26=A       27=A       28=A   
    29=A       30=A       31=A       32=A       33=A       34=A       35=A   
    36=A       37=A       38=A       39=A       40=A       41=A       42=A   
    43=A       44=A       45=A       46=A       47=A       48=A       49=A   
    50=A       51=A       52=A       53=A       54=A       55=A       56=A   
    57=A       58=A       59=A       60=A       61=A       62=A       63=A   
    64=A       65=A       66=A       67=A       68=A       69=A       70=A   
 ...... END OF INITIAL ORBITAL SELECTION ......
 CPU     0: STEP CPU TIME=     0.00 TOTAL CPU TIME=          0.0 (      0.0 MIN)
 TOTAL WALL CLOCK TIME=          0.1 SECONDS, CPU UTILIZATION IS    29.48%

          --------------------------
               R-PM3 SCF CALCULATION
          --------------------------

     NUCLEAR ENERGY =      1128.8941393339
     MAXIT =  200     NPUNCH=    2
     EXTRAP=T  DAMP=F  SHIFT=F  RSTRCT=F  DIIS=F  DEM=F  SOSCF=T
     DENSITY MATRIX CONV=  2.00E-05
     SOSCF WILL OPTIMIZE    3600 ORBITAL ROTATIONS, SOGTOL=   0.250
     MEMORY REQUIRED FOR RHF ITERS=    160860 WORDS.

                                                                                   NONZERO     BLOCKS
 ITER EX DEM     TOTAL ENERGY        E CHANGE  DENSITY CHANGE     ORB. GRAD      INTEGRALS    SKIPPED
   1  0  0     -128.1620454252  -128.1620454252   0.169871680   0.000000000              0          0
          ---------------START SECOND ORDER SCF---------------
   2  1  0     -129.0948325154    -0.9327870902   0.067110248   0.022966753              0          0
   3  2  0     -129.1646739292    -0.0698414139   0.050682043   0.020357564              0          0
   4  3  0     -129.1751005398    -0.0104266105   0.022349427   0.013778705              0          0
   5  4  0     -129.1835497929    -0.0084492532   0.010433605   0.003242430              0          0
   6  5  0     -129.1842063131    -0.0006565201   0.023185030   0.002143220              0          0
   7  6  0     -129.1848433138    -0.0006370007   0.003009146   0.000690655              0          0
   8  7  0     -129.1849008737    -0.0000575599   0.002257730   0.000456868              0          0
   9  8  0     -129.1849257941    -0.0000249203   0.000821533   0.000213606              0          0
  10  9  0     -129.1849300956    -0.0000043015   0.000581839   0.000153842              0          0
  11 10  0     -129.1849320212    -0.0000019256   0.000664463   0.000091945              0          0
  12 11  0     -129.1849328186    -0.0000007974   0.000726427   0.000068746              0          0
  13 12  0     -129.1849332910    -0.0000004724   0.000469942   0.000048537              0          0
  14 13  0     -129.1849334878    -0.0000001967   0.000160968   0.000021335              0          0
  15 14  0     -129.1849335383    -0.0000000505   0.000066181   0.000007939              0          0
  16 15  0     -129.1849335544    -0.0000000161   0.000063547   0.000008025              0          0
  17 16  0     -129.1849335656    -0.0000000112   0.000100951   0.000006550              0          0
  18 17  0     -129.1849335782    -0.0000000126   0.000155709   0.000005669              0          0
  19 18  0     -129.1849335939    -0.0000000157   0.000210983   0.000008437              0          0
  20 19  0     -129.1849336124    -0.0000000184   0.000220979   0.000008783              0          0
  21 20  0     -129.1849336302    -0.0000000178   0.000190630   0.000008877              0          0
  22 21  0     -129.1849336453    -0.0000000151   0.000191459   0.000007848              0          0
  23 22  0     -129.1849336608    -0.0000000155   0.000305954   0.000007734              0          0
  24 23  0     -129.1849336859    -0.0000000251   0.000724448   0.000012545              0          0
  25 24  0     -129.1849337452    -0.0000000593   0.002372149   0.000024897              0          0
  26 25  0     -129.1849339443    -0.0000001991   0.013930161   0.000055506              0          0
  27 26  0     -129.1849344176    -0.0000004733   0.004356189   0.000220848              0          0
  28 27  0     -129.1849352795    -0.0000008619   0.003891757   0.000150190              0          0
  29 28  0     -129.1849380854    -0.0000028058   0.007934637   0.000132871              0          0
  30 29  0     -129.1848890838     0.0000490015   0.022103725   0.000712938              0          0
  31 30  0     -129.1849332605    -0.0000441766   0.000321326   0.000037935              0          0
  32 31  0     -129.1849334029    -0.0000001424   0.000298351   0.000006787              0          0
  33 32  0     -129.1849334122    -0.0000000092   0.000265412   0.000004558              0          0
  34 33  0     -129.1849334163    -0.0000000041   0.000708638   0.000001809              0          0
  35 34  0     -129.1849334190    -0.0000000027   0.000550110   0.000007824              0          0
  36 35  0     -129.1849334164     0.0000000026   0.000012528   0.000001314              0          0
  37 36  0     -129.1849334166    -0.0000000002   0.000061897   0.000001025              0          0
  38 37  0     -129.1849334168    -0.0000000003   0.000049106   0.000000561              0          0
  39 38  0     -129.1849334169    -0.0000000000   0.000033071   0.000000325              0          0
  40 39  0     -129.1849334168     0.0000000000   0.000007570   0.000000292              0          0

          -----------------
          DENSITY CONVERGED
          -----------------
     TIME TO FORM FOCK OPERATORS=       0.0 SECONDS (       0.0 SEC/ITER)
     FOCK TIME ON FIRST ITERATION=       0.0, LAST ITERATION=       0.0
     TIME TO SOLVE SCF EQUATIONS=       0.2 SECONDS (       0.0 SEC/ITER)

 FINAL R-PM3 ENERGY IS     -129.1849334168 AFTER  40 ITERATIONS

 HEAT OF FORMATION IS      1011.74221 KCAL/MOL
 

          ------------
          EIGENVECTORS
          ------------

                      1          2          3          4          5
                   -1.9632    -1.7638    -1.6514    -1.5628    -1.3845
                     A          A          A          A          A   
    1  C  1  S    0.184313  -0.249752   0.125938  -0.075131  -0.226322
    2  C  1  X   -0.050048   0.052440  -0.053616   0.015657   0.077951
    3  C  1  Y    0.033588  -0.057305  -0.026375  -0.026719   0.039332
    4  C  1  Z   -0.006146   0.006793  -0.011963  -0.059638   0.018226
    5  C  2  S    0.175228  -0.159436   0.219122  -0.075174  -0.252409
    6  C  2  X   -0.013482  -0.025252  -0.036709  -0.002545  -0.026961
    7  C  2  Y    0.047686  -0.057729   0.028431  -0.043935  -0.052174
    8  C  2  Z   -0.021944   0.020023  -0.045449  -0.055944   0.054370
    9  C  3  S    0.184197  -0.260066  -0.002717  -0.178260   0.001998
   10  C  3  X   -0.050890   0.058616   0.001115   0.062387  -0.002215
   11  C  3  Y    0.000420  -0.000776  -0.054427   0.001369   0.105066
   12  C  3  Z   -0.036479   0.058562  -0.000581  -0.010725   0.003220
   13  C  4  S    0.169126   0.095513   0.137270  -0.212430   0.098450
   14  C  4  X   -0.002499  -0.059762   0.005564  -0.003547  -0.059189
   15  C  4  Y    0.022264   0.018515  -0.027108  -0.053699  -0.013666
   16  C  4  Z   -0.038173  -0.028357  -0.049023   0.009444  -0.039446
   17  C  5  S    0.168421  -0.091422   0.135654  -0.218124  -0.087402
   18  C  5  X    0.002442  -0.058327  -0.005507   0.000620  -0.058877
   19  C  5  Y    0.022776  -0.019009  -0.026531  -0.055465   0.013025
   20  C  5  Z   -0.038506   0.027294  -0.049059   0.011853   0.037914
   21  C  6  S    0.177378  -0.175962  -0.006705  -0.261015   0.010411
   22  C  6  X   -0.006360  -0.033130   0.000893   0.023018  -0.000391
   23  C  6  Y   -0.000034  -0.000014  -0.059569   0.002588   0.080872
   24  C  6  Z   -0.051672   0.063056   0.001382   0.048614  -0.001988
   25  C  7  S    0.173315   0.162366   0.217711  -0.068560   0.257093
   26  C  7  X    0.013509  -0.024705   0.037027   0.002877  -0.023567
   27  C  7  Y    0.047882   0.058808   0.029689  -0.041108   0.053682
   28  C  7  Z   -0.021311  -0.019202  -0.044367  -0.054756  -0.050899
   29  C  8  S    0.184352  -0.250733  -0.126405  -0.067861   0.219518
   30  C  8  X   -0.050323   0.053230   0.053976   0.012332  -0.079031
   31  C  8  Y   -0.033673   0.057374  -0.025941   0.028187   0.042187
   32  C  8  Z   -0.005642   0.006187   0.008751  -0.059794  -0.009870
   33  C  9  S    0.168889   0.094182  -0.148528  -0.202124  -0.099016
   34  C  9  X   -0.002592  -0.059857  -0.004745  -0.002873   0.066167
   35  C  9  Y   -0.022028  -0.018606  -0.024449   0.054876  -0.011688
   36  C  9  Z   -0.038476  -0.028263   0.050272   0.006814   0.040055
   37  C 10  S    0.167983  -0.092606  -0.147105  -0.206035   0.103288
   38  C 10  X    0.002597  -0.057809   0.005856  -0.000190   0.062044
   39  C 10  Y   -0.023252   0.019046  -0.022776   0.057722   0.009813
   40  C 10  Z   -0.038743   0.027785   0.050333   0.008315  -0.040245
   41  C 11  S    0.174715  -0.161199  -0.221313  -0.060973   0.260089
   42  C 11  X   -0.014419  -0.023356   0.038285  -0.004775   0.021183
   43  C 11  Y   -0.048186   0.058444   0.031010   0.041432  -0.055002
   44  C 11  Z   -0.021591   0.020001   0.042355  -0.057616  -0.049842
   45  C 12  S    0.179589   0.185364  -0.007061  -0.251198  -0.006243
   46  C 12  X    0.005965  -0.034965  -0.000340  -0.023882   0.002424
   47  C 12  Y   -0.000029  -0.000316  -0.061280   0.002424  -0.085884
   48  C 12  Z   -0.050177  -0.063595   0.001428   0.041548   0.002012
   49  C 13  S    0.177367  -0.223319  -0.083460   0.093815   0.125751
   50  C 13  X   -0.037138   0.026669   0.031956  -0.051501  -0.036206
   51  C 13  Y   -0.014787   0.026067  -0.052930  -0.002774   0.086108
   52  C 13  Z    0.039525  -0.062266  -0.022080  -0.035789   0.041185
   53  C 14  S    0.176156  -0.220383   0.094004   0.090543  -0.153803
   54  C 14  X   -0.037201   0.026318  -0.035529  -0.049978   0.039909
   55  C 14  Y    0.015301  -0.027247  -0.050427   0.005687   0.077886
   56  C 14  Z    0.039447  -0.061861   0.021728  -0.036149  -0.043699
   57  C 15  S    0.172271  -0.114796   0.200774   0.215145  -0.163349
   58  C 15  X   -0.015374  -0.033851  -0.036057  -0.055721  -0.042086
   59  C 15  Y    0.020382  -0.021655  -0.022055   0.035753   0.009669
   60  C 15  Z    0.041426  -0.039817   0.059576   0.003903  -0.067646
   61  C 16  S    0.174174  -0.118230  -0.189981   0.225236   0.153513
   62  C 16  X   -0.015024  -0.034438   0.034003  -0.057636   0.036945
   63  C 16  Y   -0.019987   0.021358  -0.026055  -0.033978   0.016423
   64  C 16  Z    0.041210  -0.040366  -0.058583   0.005326   0.066124
   65  C 17  S    0.161042  -0.002560  -0.102327   0.306482   0.002702
   66  C 17  X    0.000282  -0.043684   0.000076  -0.000081   0.031946
   67  C 17  Y   -0.005089  -0.000164  -0.065871  -0.018469   0.002241
   68  C 17  Z    0.044009  -0.000384  -0.042825   0.059870   0.000919
   69  C 18  S    0.159604  -0.001089   0.118329   0.299598  -0.001662
   70  C 18  X    0.000235  -0.043057   0.000086  -0.000058  -0.038384
   71  C 18  Y    0.004918  -0.000447  -0.063247   0.021409   0.000344
   72  C 18  Z    0.044481   0.000125   0.045683   0.059497  -0.000162
   73  C 19  S    0.173234   0.073674  -0.281987   0.125095  -0.143313
   74  C 19  X    0.007301  -0.047826  -0.025186   0.025225   0.096648
   75  C 19  Y   -0.049542  -0.029547   0.061902  -0.037374   0.046641
   76  C 19  Z    0.007498   0.009480  -0.012233  -0.058052  -0.019955
   77  C 20  S    0.173497  -0.076327  -0.280944   0.125529   0.154797
   78  C 20  X   -0.006961  -0.047233   0.025562  -0.025607   0.092496
   79  C 20  Y   -0.049585   0.030080   0.061287  -0.037209  -0.047543
   80  C 20  Z    0.008384  -0.009379  -0.014056  -0.057551   0.020914
   81  C 21  S    0.173295   0.162723  -0.221327  -0.058183  -0.259600
   82  C 21  X    0.014328  -0.023600  -0.037651   0.004609   0.024465
   83  C 21  Y   -0.048201  -0.059512   0.032128   0.039538   0.057192
   84  C 21  Z   -0.021083  -0.019136   0.041406  -0.055449   0.048025
   85  C 22  S    0.174193   0.076547   0.287503   0.115167   0.154004
   86  C 22  X    0.007213  -0.047478   0.026488   0.023521  -0.095511
   87  C 22  Y    0.049317   0.029889   0.062450   0.035329   0.047755
   88  C 22  Z    0.007499   0.009468   0.009993  -0.059507   0.019382
   89  C 23  S    0.173619  -0.073234   0.286503   0.111302  -0.149161
   90  C 23  X   -0.007255  -0.047622  -0.026623  -0.024388  -0.097175
   91  C 23  Y    0.049362  -0.029387   0.062665   0.033518  -0.048150
   92  C 23  Z    0.007222  -0.008697   0.009525  -0.060045  -0.017320
   93  C 24  S    0.172440   0.113776   0.201810   0.217659   0.158525
   94  C 24  X    0.016252  -0.033002   0.036725   0.056430  -0.040284
   95  C 24  Y    0.019426   0.020045  -0.023781   0.034833  -0.012851
   96  C 24  Z    0.042034   0.040987   0.060425   0.005442   0.068372
   97  C 25  S    0.174667   0.113205  -0.193741   0.227069  -0.147962
   98  C 25  X    0.015480  -0.035248  -0.033387   0.057804   0.042754
   99  C 25  Y   -0.019360  -0.020306  -0.026933  -0.033768  -0.014342
  100  C 25  Z    0.041206   0.040118  -0.059743   0.005165  -0.065957
  101  C 26  S    0.180372   0.225155  -0.091177   0.091170  -0.140694
  102  C 26  X    0.035484   0.022057  -0.032846   0.052920  -0.033978
  103  C 26  Y   -0.014081  -0.025696  -0.055154  -0.001970  -0.085575
  104  C 26  Z    0.038776   0.062529  -0.023167  -0.039962  -0.044845
  105  C 27  S    0.179015   0.223863   0.095070   0.087645   0.146898
  106  C 27  X    0.035946   0.023106   0.035383   0.051474   0.037515
  107  C 27  Y    0.013905   0.025265  -0.054040   0.004191  -0.084072
  108  C 27  Z    0.038710   0.062536   0.020467  -0.040287   0.041176
  109  C 28  S    0.179620   0.248741  -0.126884  -0.069704  -0.226203
  110  C 28  X    0.050937   0.055623  -0.054907  -0.012333  -0.081589
  111  C 28  Y   -0.033846  -0.058491  -0.023237   0.028771  -0.035741
  112  C 28  Z   -0.005725  -0.005614   0.009329  -0.053968   0.011750
  113  C 29  S    0.178488   0.260483  -0.003678  -0.166240  -0.005503
  114  C 29  X    0.052305   0.064301  -0.001135  -0.058991  -0.001184
  115  C 29  Y    0.000421   0.000518  -0.052186   0.001090  -0.103714
  116  C 29  Z   -0.035386  -0.057313  -0.000355  -0.007793  -0.000529
  117  C 30  S    0.179343   0.248917   0.121849  -0.075401   0.219018
  118  C 30  X    0.050419   0.055098   0.053436  -0.014842   0.080286
  119  C 30  Y    0.034297   0.059047  -0.024153  -0.027748  -0.037561
  120  C 30  Z   -0.005842  -0.005676  -0.012033  -0.054104  -0.016050

                      6          7          8          9         10
                   -1.3623    -1.2942    -1.2411    -1.1955    -1.0927
                     A          A          A          A          A   
    1  C  1  S    0.193260  -0.044651   0.102238  -0.076069  -0.092165
    2  C  1  X    0.014162   0.009579  -0.036557   0.027959  -0.087466
    3  C  1  Y    0.091687  -0.028282  -0.012619   0.037646  -0.157631
    4  C  1  Z   -0.048065  -0.117982   0.053905   0.031495   0.024678
    5  C  2  S   -0.086781  -0.045229   0.182617  -0.164095   0.218422
    6  C  2  X    0.090053  -0.019057  -0.012911   0.029373  -0.027706
    7  C  2  Y    0.014709  -0.047496   0.053628   0.026220   0.001079
    8  C  2  Z   -0.019430  -0.073538   0.068739   0.080702  -0.050218
    9  C  3  S    0.170478  -0.241917   0.000616   0.052204  -0.172196
   10  C  3  X    0.021118   0.084101  -0.001982  -0.038554  -0.050831
   11  C  3  Y    0.001967   0.001480  -0.097265   0.001848   0.000605
   12  C  3  Z   -0.105874  -0.043688   0.002020   0.041423   0.120365
   13  C  4  S   -0.185959   0.168701   0.257600   0.107979  -0.127012
   14  C  4  X   -0.074442  -0.078826   0.013744   0.012463   0.038512
   15  C  4  Y   -0.009527   0.042934  -0.026711   0.102331   0.005668
   16  C  4  Z    0.014628  -0.015354  -0.039591   0.054415   0.034430
   17  C  5  S   -0.216492  -0.107770   0.263464   0.107644   0.079195
   18  C  5  X    0.054233  -0.097053  -0.009518  -0.014775   0.064993
   19  C  5  Y   -0.017443  -0.042964  -0.025734   0.101718  -0.008724
   20  C  5  Z    0.019944   0.010171  -0.042793   0.054111  -0.035469
   21  C  6  S   -0.115258  -0.278314   0.002894   0.212392   0.071388
   22  C  6  X    0.092609  -0.049414  -0.000776  -0.050797  -0.030914
   23  C  6  Y    0.000353   0.001868  -0.138613   0.000530   0.005988
   24  C  6  Z   -0.014332   0.064447  -0.000232  -0.006264   0.000614
   25  C  7  S   -0.063127   0.070862   0.172772  -0.160758  -0.218122
   26  C  7  X   -0.092491   0.005258   0.012257  -0.031307  -0.045507
   27  C  7  Y    0.024801   0.042092   0.051380   0.025948   0.001388
   28  C  7  Z   -0.006100   0.078508   0.067848   0.080251   0.045080
   29  C  8  S    0.201805  -0.035123  -0.107326  -0.070875  -0.102699
   30  C  8  X    0.010621   0.005758   0.035351   0.026337  -0.085378
   31  C  8  Y   -0.090872   0.030105  -0.011876  -0.036786   0.157144
   32  C  8  Z   -0.048800  -0.118840  -0.049846   0.032181   0.034029
   33  C  9  S   -0.194458   0.153791  -0.257319   0.110654  -0.128293
   34  C  9  X   -0.070685  -0.075187  -0.007464   0.013294   0.050133
   35  C  9  Y    0.008113  -0.044226  -0.026775  -0.101202  -0.004246
   36  C  9  Z    0.017535  -0.012158   0.040239   0.053382   0.035940
   37  C 10  S   -0.215730  -0.108029  -0.255816   0.108225   0.099576
   38  C 10  X    0.056224  -0.090921   0.009163  -0.013808   0.067467
   39  C 10  Y    0.018487   0.043158  -0.024771  -0.101436   0.011234
   40  C 10  Z    0.019347   0.008622   0.041744   0.054101  -0.039517
   41  C 11  S   -0.077576  -0.034626  -0.180505  -0.159446   0.226670
   42  C 11  X    0.090764  -0.016715   0.011422   0.031306  -0.037336
   43  C 11  Y   -0.016288   0.044985   0.052134  -0.026350  -0.003312
   44  C 11  Z   -0.022663  -0.077500  -0.065595   0.080982  -0.039809
   45  C 12  S   -0.049304   0.298678  -0.004006   0.212567  -0.062782
   46  C 12  X   -0.105608  -0.020949   0.002472   0.049931  -0.076225
   47  C 12  Y   -0.003296  -0.005494  -0.136948   0.000153  -0.004750
   48  C 12  Z   -0.031252  -0.051005   0.001027  -0.002384  -0.015482
   49  C 13  S    0.251666   0.226569   0.020913   0.013562  -0.156365
   50  C 13  X    0.011079  -0.060700  -0.027747  -0.027959  -0.073451
   51  C 13  Y   -0.062293  -0.020117   0.016054  -0.044864   0.110667
   52  C 13  Z    0.066765  -0.026355  -0.026197  -0.055965  -0.064147
   53  C 14  S    0.240595   0.220003  -0.033004   0.011351  -0.130586
   54  C 14  X    0.014040  -0.058123   0.028408  -0.027382  -0.080039
   55  C 14  Y    0.067959   0.025250   0.015459   0.046509  -0.123932
   56  C 14  Z    0.065173  -0.026177   0.025340  -0.057694  -0.061250
   57  C 15  S   -0.019047   0.189479  -0.211810   0.073273   0.138212
   58  C 15  X    0.085458   0.042600   0.081351  -0.047261  -0.011733
   59  C 15  Y    0.044412   0.040343   0.015796   0.105374  -0.042978
   60  C 15  Z    0.000629   0.027716  -0.003649  -0.088755   0.049255
   61  C 16  S   -0.005857   0.202847   0.209492   0.070744   0.114733
   62  C 16  X    0.086798   0.042756  -0.086911  -0.045578  -0.020318
   63  C 16  Y   -0.044632  -0.038807   0.016455  -0.107117   0.046366
   64  C 16  Z    0.004157   0.029472   0.000205  -0.088912   0.043293
   65  C 17  S   -0.078007   0.004299   0.193097   0.345384   0.016440
   66  C 17  X    0.012021   0.107735  -0.002129   0.002143   0.042559
   67  C 17  Y   -0.020538   0.005589   0.112429  -0.102239   0.002346
   68  C 17  Z   -0.023316   0.001668   0.056381   0.013120   0.002478
   69  C 18  S   -0.082571  -0.001634  -0.184032   0.346477   0.017357
   70  C 18  X    0.010142   0.105286  -0.001020   0.002662   0.048998
   71  C 18  Y    0.023141  -0.002590   0.111978   0.100849  -0.002355
   72  C 18  Z   -0.025063   0.000037  -0.054033   0.016764   0.002733
   73  C 19  S   -0.180526  -0.044964   0.116453  -0.235620  -0.157516
   74  C 19  X   -0.058122   0.051115   0.047459  -0.015108   0.109826
   75  C 19  Y    0.020528   0.026057  -0.034672   0.005592   0.041292
   76  C 19  Z   -0.017029   0.026968  -0.120441  -0.060199  -0.032056
   77  C 20  S   -0.161288   0.090069   0.113295  -0.233129   0.183055
   78  C 20  X    0.070002   0.035397  -0.050802   0.015678   0.090380
   79  C 20  Y    0.012894  -0.028535  -0.032908   0.004137  -0.039806
   80  C 20  Z   -0.022494  -0.021171  -0.118627  -0.064940   0.026691
   81  C 21  S   -0.074277   0.052219  -0.178693  -0.155291  -0.224861
   82  C 21  X   -0.091269   0.006487  -0.011519  -0.031029  -0.041289
   83  C 21  Y   -0.022628  -0.037767   0.052336  -0.026615   0.003448
   84  C 21  Z   -0.006385   0.078858  -0.067784   0.080373   0.040058
   85  C 22  S   -0.177037  -0.042898  -0.120445  -0.231792  -0.171011
   86  C 22  X   -0.063747   0.046671  -0.046542  -0.014125   0.107058
   87  C 22  Y   -0.018505  -0.025531  -0.033502  -0.002868  -0.041414
   88  C 22  Z   -0.014358   0.032056   0.118814  -0.066956  -0.030979
   89  C 23  S   -0.171487   0.079711  -0.114296  -0.231773   0.182211
   90  C 23  X    0.067269   0.032011   0.047774   0.015041   0.101412
   91  C 23  Y   -0.015863   0.025160  -0.031050  -0.004002   0.044049
   92  C 23  Z   -0.019983  -0.019887   0.120122  -0.067041   0.018368
   93  C 24  S   -0.054655  -0.195047  -0.211479   0.066360  -0.130127
   94  C 24  X   -0.075634   0.054101  -0.083286   0.048946   0.013221
   95  C 24  Y    0.033845  -0.051248   0.019751   0.104281   0.034389
   96  C 24  Z   -0.002782  -0.028214  -0.005391  -0.088572  -0.054430
   97  C 25  S   -0.057039  -0.195458   0.221333   0.061573  -0.118799
   98  C 25  X   -0.072987   0.060848   0.084256   0.047392   0.015473
   99  C 25  Y   -0.035002   0.051113   0.015893  -0.106958  -0.033750
  100  C 25  Z   -0.005306  -0.028618   0.001863  -0.090883  -0.051337
  101  C 26  S    0.189293  -0.272636   0.031059   0.003140   0.092707
  102  C 26  X   -0.031458  -0.055393   0.031862   0.024632  -0.086239
  103  C 26  Y   -0.059673   0.033954   0.014941  -0.047473  -0.106862
  104  C 26  Z    0.066610   0.019436  -0.030422  -0.054055   0.063344
  105  C 27  S    0.193230  -0.266244  -0.023955   0.003252   0.090303
  106  C 27  X   -0.029468  -0.055313  -0.028555   0.024704  -0.087566
  107  C 27  Y    0.056473  -0.037698   0.017813   0.047337   0.107946
  108  C 27  Z    0.069498   0.021068   0.027875  -0.054354   0.067609
  109  C 28  S    0.193959  -0.004335  -0.107591  -0.065091   0.104825
  110  C 28  X   -0.008405   0.006767  -0.036624  -0.027110  -0.085424
  111  C 28  Y   -0.094632  -0.010309  -0.010376  -0.037875  -0.162508
  112  C 28  Z   -0.022795   0.118374  -0.049989   0.037047  -0.006325
  113  C 29  S    0.222627   0.185584  -0.003380   0.057579   0.239747
  114  C 29  X    0.006566   0.084170  -0.000332   0.036916  -0.031091
  115  C 29  Y   -0.002519  -0.003960  -0.091639   0.001392  -0.004957
  116  C 29  Z   -0.091674   0.063074  -0.000632   0.036962  -0.113768
  117  C 30  S    0.205606   0.010224   0.102060  -0.067361   0.119086
  118  C 30  X   -0.005190   0.012468   0.035633  -0.027821  -0.083412
  119  C 30  Y    0.093519   0.007824  -0.009960   0.037672   0.162019
  120  C 30  Z   -0.021974   0.119811   0.046474   0.036201  -0.000379

                     11         12         13         14         15
                   -1.0660    -1.0378    -1.0188    -0.9692    -0.9440
                     A          A          A          A          A   
    1  C  1  S   -0.242180   0.090473  -0.096514  -0.175581  -0.007200
    2  C  1  X    0.040135   0.009036   0.031131   0.012880  -0.009587
    3  C  1  Y    0.026047   0.054946   0.004639   0.019924  -0.034259
    4  C  1  Z    0.063374   0.136402  -0.127365   0.024247  -0.049591
    5  C  2  S   -0.005372  -0.021303  -0.152063  -0.141258   0.090871
    6  C  2  X   -0.150067   0.061603  -0.028795  -0.035015  -0.044571
    7  C  2  Y   -0.042497   0.023442  -0.075615   0.016282  -0.081710
    8  C  2  Z    0.067864   0.011143  -0.112581   0.086973  -0.133132
    9  C  3  S    0.011131   0.314461   0.008418  -0.001811   0.000351
   10  C  3  X   -0.003372  -0.043290   0.001307  -0.087901   0.002724
   11  C  3  Y    0.098311  -0.006150   0.160625   0.000302   0.080366
   12  C  3  Z    0.002877   0.009233  -0.001675   0.123786  -0.003040
   13  C  4  S    0.147601  -0.151695   0.192675  -0.119437  -0.200851
   14  C  4  X    0.093679  -0.137418  -0.109595   0.060502  -0.022997
   15  C  4  Y   -0.037526  -0.014450  -0.014141  -0.087580  -0.034167
   16  C  4  Z   -0.015231  -0.017907  -0.036231  -0.029981  -0.032491
   17  C  5  S    0.176603  -0.178566  -0.160929   0.102435  -0.213137
   18  C  5  X   -0.073263   0.123566  -0.124077   0.065319   0.016563
   19  C  5  Y   -0.040052  -0.012408   0.003682   0.084534  -0.038643
   20  C  5  Z   -0.023336  -0.009809   0.033009   0.030005  -0.032064
   21  C  6  S    0.001797   0.049123   0.004866   0.291703  -0.005991
   22  C  6  X    0.009817   0.185130   0.003257  -0.020560   0.001274
   23  C  6  Y   -0.033938  -0.002180   0.179203  -0.000439   0.165499
   24  C  6  Z   -0.003740  -0.063757  -0.001241  -0.013571   0.000208
   25  C  7  S   -0.038668   0.024749   0.146606   0.146238   0.083000
   26  C  7  X    0.151130  -0.050617   0.000506  -0.031241   0.048130
   27  C  7  Y   -0.052261   0.020159   0.064726  -0.023463  -0.076453
   28  C  7  Z    0.050575   0.006273   0.126048  -0.093610  -0.122419
   29  C  8  S    0.246883   0.063459   0.097719  -0.174381   0.017816
   30  C  8  X   -0.044960   0.014476  -0.022435   0.012970   0.007609
   31  C  8  Y    0.028571  -0.058419  -0.006086  -0.020213  -0.031301
   32  C  8  Z   -0.048482   0.138824   0.129798   0.021636   0.050010
   33  C  9  S   -0.170436  -0.135497  -0.190979  -0.101430   0.206201
   34  C  9  X   -0.103525  -0.126319   0.108732   0.058695   0.016919
   35  C  9  Y   -0.037813   0.018074  -0.008335   0.085211  -0.037646
   36  C  9  Z    0.015554  -0.019678   0.031677  -0.028212   0.033141
   37  C 10  S   -0.192641  -0.163492   0.158303   0.105697   0.204975
   38  C 10  X    0.088013   0.110869   0.124149   0.057049  -0.017261
   39  C 10  Y   -0.035027   0.018070   0.000393  -0.086945  -0.036772
   40  C 10  Z    0.019640  -0.011674  -0.030123   0.033690   0.031480
   41  C 11  S    0.018151  -0.025925   0.133774  -0.151027  -0.080805
   42  C 11  X    0.152709   0.043973   0.028532  -0.029981   0.048009
   43  C 11  Y   -0.045930  -0.017172  -0.075156  -0.017508  -0.079711
   44  C 11  Z   -0.070803   0.016381   0.120442   0.088925   0.127446
   45  C 12  S    0.002382   0.082098  -0.005178  -0.287927   0.009078
   46  C 12  X   -0.010654  -0.177130   0.001336  -0.031815  -0.000950
   47  C 12  Y   -0.003314  -0.000856  -0.185170   0.007934   0.157369
   48  C 12  Z   -0.003816  -0.059166   0.000041   0.005519  -0.000307
   49  C 13  S    0.171169  -0.241810  -0.120419   0.104465   0.012258
   50  C 13  X   -0.027600   0.037354   0.058361  -0.088543  -0.022515
   51  C 13  Y    0.117390   0.037617  -0.082283  -0.071282   0.001845
   52  C 13  Z    0.055406   0.030931   0.021949  -0.136839  -0.022448
   53  C 14  S   -0.208010  -0.224018   0.131016   0.096752  -0.023544
   54  C 14  X    0.026154   0.033804  -0.054914  -0.083531   0.026468
   55  C 14  Y    0.098068  -0.049163  -0.071641   0.076722  -0.004473
   56  C 14  Z   -0.055643   0.033523  -0.022841  -0.135244   0.032584
   57  C 15  S   -0.072924  -0.010636   0.227922   0.142972  -0.167569
   58  C 15  X   -0.121917  -0.134103   0.038627   0.017103   0.085568
   59  C 15  Y   -0.030534  -0.047838  -0.002614   0.104546  -0.061812
   60  C 15  Z   -0.036243  -0.029460   0.040609  -0.062068   0.084806
   61  C 16  S    0.080716  -0.018415  -0.233486   0.161359   0.157505
   62  C 16  X    0.108204  -0.145828  -0.039119   0.014238  -0.089900
   63  C 16  Y   -0.021445   0.051202  -0.009469  -0.109098  -0.057676
   64  C 16  Z    0.036980  -0.032258  -0.044622  -0.066118  -0.081258
   65  C 17  S   -0.028153   0.141608  -0.004312   0.004538   0.256240
   66  C 17  X    0.008213  -0.003714  -0.083423   0.185375  -0.004307
   67  C 17  Y   -0.030162   0.027547  -0.005246   0.008280   0.138644
   68  C 17  Z   -0.010884   0.023897  -0.000817  -0.000230   0.047992
   69  C 18  S    0.043411   0.139750   0.006239  -0.011307  -0.253910
   70  C 18  X   -0.006111  -0.003176   0.084858   0.180671  -0.005977
   71  C 18  Y   -0.032553  -0.025087  -0.002723  -0.000666   0.138569
   72  C 18  Z    0.013683   0.023590   0.000678  -0.002901  -0.044023
   73  C 19  S   -0.149872   0.099708   0.092120   0.086728  -0.217266
   74  C 19  X   -0.127566   0.061107  -0.076359  -0.062486  -0.022067
   75  C 19  Y   -0.014850  -0.004586  -0.040708  -0.001124  -0.042492
   76  C 19  Z   -0.029993  -0.049962  -0.060763   0.043352  -0.121270
   77  C 20  S   -0.123427   0.064139  -0.115300  -0.087139  -0.211950
   78  C 20  X    0.143006  -0.082523  -0.053062  -0.063736   0.024147
   79  C 20  Y   -0.023696   0.002341   0.035493  -0.000229  -0.043555
   80  C 20  Z   -0.038990  -0.055826   0.055251  -0.056704  -0.125184
   81  C 21  S    0.032176   0.023566  -0.128591   0.144089  -0.085456
   82  C 21  X   -0.157115  -0.034494   0.001411  -0.033624  -0.044766
   83  C 21  Y   -0.056207  -0.016045   0.065468   0.017408  -0.077768
   84  C 21  Z   -0.049579   0.011917  -0.132117  -0.083962   0.126944
   85  C 22  S    0.147085   0.084605  -0.080472   0.101457   0.205053
   86  C 22  X    0.140455   0.047902   0.071582  -0.060346   0.026900
   87  C 22  Y   -0.017394   0.005694  -0.038473  -0.002425  -0.044623
   88  C 22  Z    0.023993  -0.053209   0.065854   0.052114   0.129924
   89  C 23  S    0.142354   0.048972   0.102216  -0.076505   0.216783
   90  C 23  X   -0.143887  -0.067164   0.043204  -0.068335  -0.021391
   91  C 23  Y   -0.020130  -0.001083   0.031191  -0.004419  -0.040984
   92  C 23  Z    0.033155  -0.060196  -0.057997  -0.047149   0.130654
   93  C 24  S   -0.038500   0.011326  -0.235997  -0.149372  -0.158716
   94  C 24  X    0.111963   0.134822   0.057650   0.012359  -0.088177
   95  C 24  Y   -0.027438  -0.059469   0.001628  -0.115256  -0.052310
   96  C 24  Z   -0.031875  -0.022720  -0.050966   0.064407   0.078653
   97  C 25  S    0.031275   0.006866   0.239267  -0.145347   0.161794
   98  C 25  X   -0.099373   0.146140  -0.060242   0.020043   0.088496
   99  C 25  Y   -0.024775   0.062707   0.005376   0.112835  -0.065391
  100  C 25  Z    0.025558  -0.024795   0.052783   0.061082  -0.086657
  101  C 26  S    0.157408  -0.271509   0.148453  -0.096741   0.017843
  102  C 26  X    0.009014  -0.018323   0.062189  -0.089788   0.026234
  103  C 26  Y    0.096254   0.064820   0.097499   0.077154  -0.006731
  104  C 26  Z    0.060684   0.020671  -0.019640   0.135962  -0.030448
  105  C 27  S   -0.178388  -0.254396  -0.157199  -0.093328  -0.013862
  106  C 27  X   -0.015171  -0.017587  -0.057066  -0.088789  -0.020187
  107  C 27  Y    0.093302  -0.074831   0.088748  -0.080278   0.000689
  108  C 27  Z   -0.054431   0.024026   0.020175   0.136476   0.023022
  109  C 28  S    0.261476   0.042421  -0.061731   0.171000   0.010431
  110  C 28  X    0.049327   0.001138  -0.014746   0.014228  -0.008050
  111  C 28  Y    0.017669  -0.022873   0.011108   0.021430  -0.031588
  112  C 28  Z   -0.029126   0.140074  -0.128547  -0.028259   0.051099
  113  C 29  S    0.016588   0.269814  -0.005488   0.007935  -0.000055
  114  C 29  X    0.002117   0.062764   0.001568  -0.079391   0.002003
  115  C 29  Y    0.123448  -0.006029  -0.134821   0.001851   0.076315
  116  C 29  Z    0.000321   0.044569   0.001554  -0.111535   0.003596
  117  C 30  S   -0.250442   0.067807   0.059564   0.170657  -0.020047
  118  C 30  X   -0.051811   0.006168   0.022195   0.013938   0.008159
  119  C 30  Y    0.026585   0.020795   0.001234  -0.021758  -0.030120
  120  C 30  Z    0.041269   0.137563   0.128166  -0.033125  -0.047381

                     16         17         18         19         20
                   -0.9122    -0.8665    -0.8408    -0.8292    -0.8138
                     A          A          A          A          A   
    1  C  1  S    0.040917  -0.019068   0.166672  -0.226418  -0.067155
    2  C  1  X   -0.066060  -0.107691   0.033753   0.006615  -0.034971
    3  C  1  Y   -0.091866  -0.164137   0.036873  -0.012203  -0.061775
    4  C  1  Z    0.052807   0.004090  -0.110679  -0.131613  -0.136380
    5  C  2  S    0.223620   0.028090  -0.160984   0.010925   0.113291
    6  C  2  X    0.005474   0.138552   0.080928  -0.164578  -0.064919
    7  C  2  Y    0.021129   0.039099   0.037669  -0.077692   0.003012
    8  C  2  Z    0.031420  -0.071803   0.017360  -0.045029   0.045161
    9  C  3  S   -0.049190  -0.070202  -0.010601   0.026231  -0.282986
   10  C  3  X   -0.003760  -0.109955   0.002706   0.004354  -0.018535
   11  C  3  Y   -0.001348   0.005784  -0.062290   0.274453   0.028101
   12  C  3  Z    0.014899   0.162029  -0.003051  -0.002970   0.008898
   13  C  4  S    0.008184  -0.061996   0.127552   0.088793  -0.147599
   14  C  4  X   -0.039509  -0.121748   0.056321   0.186176   0.062953
   15  C  4  Y   -0.152464   0.102042  -0.055746  -0.003572  -0.019167
   16  C  4  Z   -0.095154   0.033282  -0.032998   0.033067   0.021392
   17  C  5  S    0.001662  -0.084601  -0.001083   0.155408   0.147879
   18  C  5  X    0.039000   0.108412  -0.104987  -0.157407   0.069303
   19  C  5  Y   -0.150102   0.101764   0.023210  -0.050213   0.002375
   20  C  5  Z   -0.094381   0.039816   0.039519  -0.007164  -0.024959
   21  C  6  S   -0.162359   0.168737  -0.001266  -0.009203   0.068146
   22  C  6  X    0.076854   0.035902  -0.006718   0.016547  -0.155403
   23  C  6  Y    0.000519   0.000991   0.030785   0.048198   0.013214
   24  C  6  Z   -0.024857  -0.011839   0.001636  -0.004147   0.033793
   25  C  7  S    0.233253   0.043615   0.112597  -0.119394  -0.100724
   26  C  7  X   -0.005399  -0.128372   0.182189   0.021134  -0.047712
   27  C  7  Y    0.021287   0.041522  -0.079568  -0.011638  -0.015294
   28  C  7  Z    0.032701  -0.059273  -0.045026  -0.025161  -0.044554
   29  C  8  S    0.039883  -0.017771  -0.176142   0.230727  -0.019598
   30  C  8  X   -0.064831  -0.109347  -0.025931   0.006253  -0.028789
   31  C  8  Y    0.093881   0.165351   0.030913  -0.029854   0.050006
   32  C  8  Z    0.050974   0.018347   0.101289   0.154084  -0.118098
   33  C  9  S    0.007218  -0.079249  -0.145116  -0.063523  -0.159519
   34  C  9  X   -0.043178  -0.129778  -0.043590  -0.188906   0.049426
   35  C  9  Y    0.151355  -0.105854  -0.050574  -0.001457   0.028863
   36  C  9  Z   -0.094001   0.033173   0.034335  -0.037948   0.010854
   37  C 10  S    0.002687  -0.093793   0.023773  -0.174327   0.134916
   38  C 10  X    0.039533   0.123164   0.112070   0.140478   0.090447
   39  C 10  Y    0.149024  -0.100355   0.033869  -0.037571  -0.017053
   40  C 10  Z   -0.093935   0.036435  -0.048326   0.006091  -0.017268
   41  C 11  S    0.224875   0.039101   0.172420  -0.026176   0.080167
   42  C 11  X    0.004339   0.139600  -0.101906   0.160530  -0.029150
   43  C 11  Y   -0.019412  -0.043773   0.040040  -0.073234  -0.025243
   44  C 11  Z    0.029548  -0.069126  -0.000362   0.043694   0.069103
   45  C 12  S   -0.161064   0.177674  -0.003582  -0.001547  -0.034219
   46  C 12  X   -0.067960  -0.011717  -0.013490   0.014110  -0.209846
   47  C 12  Y    0.001182  -0.000786   0.024120   0.070615  -0.007163
   48  C 12  Z   -0.026198  -0.003004  -0.003362   0.002815  -0.039648
   49  C 13  S   -0.063606  -0.033400  -0.199948  -0.096695   0.190256
   50  C 13  X   -0.037320  -0.113347   0.014947   0.062703   0.066757
   51  C 13  Y    0.032856   0.143746  -0.133165  -0.055937  -0.113790
   52  C 13  Z   -0.028077  -0.065433  -0.052507   0.053303   0.026434
   53  C 14  S   -0.062685  -0.007118   0.229433   0.073645   0.169726
   54  C 14  X   -0.036941  -0.118053   0.003597  -0.068182   0.067385
   55  C 14  Y   -0.031961  -0.156684  -0.089682  -0.065314   0.121850
   56  C 14  Z   -0.027385  -0.064460   0.053503  -0.059194   0.025860
   57  C 15  S   -0.058554   0.132460  -0.003908   0.107093  -0.189804
   58  C 15  X    0.033105   0.107880   0.132171   0.115978   0.072840
   59  C 15  Y    0.112813  -0.031340   0.078300   0.013360   0.023032
   60  C 15  Z   -0.056578   0.066671  -0.011854   0.049166   0.017914
   61  C 16  S   -0.059599   0.126617  -0.029422  -0.084778  -0.177023
   62  C 16  X    0.035273   0.088514  -0.132597  -0.130098   0.071489
   63  C 16  Y   -0.111319   0.038037   0.069083   0.014061  -0.038442
   64  C 16  Z   -0.054110   0.061951   0.003353  -0.054156   0.004592
   65  C 17  S    0.215581  -0.113459   0.036949   0.061996  -0.005018
   66  C 17  X    0.006362   0.007636   0.000021   0.006426  -0.169202
   67  C 17  Y   -0.203504   0.059893   0.025065   0.050743  -0.003873
   68  C 17  Z   -0.049295   0.011965   0.006450   0.013916  -0.001108
   69  C 18  S    0.218389  -0.122502  -0.030186  -0.057787  -0.011586
   70  C 18  X    0.007500   0.006765  -0.017260   0.020483  -0.184478
   71  C 18  Y    0.202637  -0.053628   0.030573   0.050658   0.009458
   72  C 18  Z   -0.044083   0.008203  -0.008622  -0.014163  -0.002725
   73  C 19  S   -0.131542  -0.063183  -0.135629   0.137890   0.089976
   74  C 19  X   -0.107413  -0.149787   0.144045   0.064864  -0.045112
   75  C 19  Y    0.013715  -0.049074   0.032370   0.017122  -0.027802
   76  C 19  Z    0.161696  -0.076273  -0.074233  -0.004172  -0.066235
   77  C 20  S   -0.131035  -0.045078   0.197187  -0.021250  -0.087240
   78  C 20  X    0.108209   0.159019   0.027396  -0.146170  -0.045423
   79  C 20  Y    0.010864  -0.052357  -0.004130   0.030074   0.032875
   80  C 20  Z    0.154038  -0.081831   0.043669  -0.068071   0.077312
   81  C 21  S    0.235377   0.043114  -0.122784   0.128281  -0.056939
   82  C 21  X   -0.002990  -0.137810  -0.185614  -0.005323  -0.033513
   83  C 21  Y   -0.018270  -0.047997  -0.078865  -0.012010   0.026648
   84  C 21  Z    0.030975  -0.057717   0.040045   0.039159  -0.058592
   85  C 22  S   -0.138042  -0.057930   0.147532  -0.142412   0.048450
   86  C 22  X   -0.107732  -0.164443  -0.134062  -0.051611  -0.034501
   87  C 22  Y   -0.009935   0.050866   0.029462   0.010933   0.028670
   88  C 22  Z    0.158847  -0.072508   0.069967   0.017009  -0.083381
   89  C 23  S   -0.135176  -0.057235  -0.200973   0.035245  -0.051104
   90  C 23  X    0.106116   0.166581  -0.046818   0.139787  -0.012789
   91  C 23  Y   -0.006737   0.050626  -0.014665   0.032277  -0.027201
   92  C 23  Z    0.154742  -0.078977  -0.022980   0.060461   0.102665
   93  C 24  S   -0.071793   0.113428   0.072844   0.045597   0.203668
   94  C 24  X   -0.037105  -0.107315  -0.020855  -0.175004   0.029016
   95  C 24  Y    0.112205  -0.030474  -0.032747   0.066645  -0.008727
   96  C 24  Z   -0.053981   0.069453   0.048581   0.028722  -0.010358
   97  C 25  S   -0.076197   0.105456  -0.060153  -0.077834   0.180888
   98  C 25  X   -0.037331  -0.095891   0.031093   0.174888   0.049892
   99  C 25  Y   -0.111381   0.030288  -0.032488   0.064416   0.027381
  100  C 25  Z   -0.053289   0.061542  -0.052222  -0.029827  -0.006782
  101  C 26  S   -0.057617  -0.009533   0.050825  -0.204128  -0.188225
  102  C 26  X    0.030360   0.109221  -0.053976  -0.048276   0.090857
  103  C 26  Y    0.030347   0.134911   0.020664  -0.136957   0.107474
  104  C 26  Z   -0.018049  -0.058061   0.077325  -0.000358  -0.061547
  105  C 27  S   -0.053726  -0.000588  -0.068445   0.232413  -0.146672
  106  C 27  X    0.030360   0.112946   0.056427   0.025811   0.094563
  107  C 27  Y   -0.032007  -0.140871   0.012934  -0.109027  -0.128591
  108  C 27  Z   -0.017609  -0.064537  -0.079083   0.009186  -0.064135
  109  C 28  S    0.043292  -0.014138   0.291861  -0.007005   0.005828
  110  C 28  X    0.067171   0.110503  -0.018655   0.015277  -0.025124
  111  C 28  Y    0.099702   0.161744  -0.049531   0.010838  -0.031242
  112  C 28  Z    0.041150   0.012106   0.053333   0.152278   0.149016
  113  C 29  S   -0.069137  -0.104630   0.016476  -0.018339   0.298886
  114  C 29  X    0.002315   0.103238  -0.000106  -0.005718   0.018378
  115  C 29  Y   -0.001896   0.009424   0.262294   0.102949  -0.008910
  116  C 29  Z    0.017888   0.155591   0.001978  -0.007284   0.050595
  117  C 30  S    0.045876  -0.031910  -0.287510   0.004884   0.029095
  118  C 30  X    0.068331   0.111379   0.012446  -0.021327  -0.033399
  119  C 30  Y   -0.097834  -0.163806  -0.039106   0.015022   0.043703
  120  C 30  Z    0.039492   0.000941  -0.040698  -0.172426   0.138027

                     21         22         23         24         25
                   -0.7834    -0.7746    -0.7346    -0.7252    -0.7200
                     A          A          A          A          A   
    1  C  1  S   -0.181395  -0.093987  -0.023745  -0.085219   0.027255
    2  C  1  X    0.000921   0.019247   0.030183  -0.064454   0.005848
    3  C  1  Y    0.043216   0.056016   0.028375  -0.083710  -0.023374
    4  C  1  Z    0.083094   0.032995  -0.146118   0.050732  -0.076576
    5  C  2  S   -0.015975  -0.095898  -0.174680   0.199272  -0.012150
    6  C  2  X   -0.108366  -0.036818  -0.003860  -0.032237   0.016310
    7  C  2  Y   -0.024069   0.067124  -0.048532  -0.026140  -0.088095
    8  C  2  Z    0.059027   0.155580  -0.139993  -0.022151  -0.168640
    9  C  3  S    0.120606  -0.023086  -0.016086  -0.002077  -0.040272
   10  C  3  X   -0.118414   0.007448  -0.049374   0.000459  -0.021566
   11  C  3  Y   -0.005237  -0.036185   0.004049   0.106283  -0.008122
   12  C  3  Z    0.167485  -0.012716   0.052069  -0.000747   0.029074
   13  C  4  S   -0.064301  -0.179296   0.010941  -0.101841  -0.093358
   14  C  4  X   -0.125074   0.123057  -0.030247  -0.069901  -0.036626
   15  C  4  Y   -0.047363  -0.026931  -0.161784  -0.096669   0.217384
   16  C  4  Z   -0.055236   0.001414  -0.085621  -0.096803   0.101138
   17  C  5  S   -0.065328   0.180616  -0.025435  -0.106234  -0.096539
   18  C  5  X    0.131961   0.104418  -0.015938   0.070455   0.033177
   19  C  5  Y   -0.046426   0.041909   0.169209  -0.101764   0.187210
   20  C  5  Z   -0.050185   0.013665   0.099404  -0.099281   0.090980
   21  C  6  S    0.118780  -0.002401   0.264028   0.008209   0.157201
   22  C  6  X    0.211599  -0.027604  -0.071949  -0.005437  -0.075413
   23  C  6  Y   -0.023576  -0.217937   0.003231   0.149482  -0.013828
   24  C  6  Z   -0.064231   0.007433   0.032540   0.002039   0.031260
   25  C  7  S    0.006606   0.094180   0.184176   0.197257  -0.043308
   26  C  7  X    0.115634  -0.057531   0.000611   0.034866  -0.021149
   27  C  7  Y   -0.028527  -0.068739   0.028443  -0.028076  -0.083334
   28  C  7  Z    0.042674  -0.166197   0.126301  -0.029516  -0.180696
   29  C  8  S   -0.164988   0.119427  -0.025271   0.087327   0.009551
   30  C  8  X   -0.002771  -0.019576   0.030333   0.063423  -0.004655
   31  C  8  Y   -0.030393   0.067028  -0.036361  -0.083259   0.035496
   32  C  8  Z    0.070025  -0.062837  -0.142519  -0.056036  -0.064167
   33  C  9  S   -0.033446   0.170562   0.006516   0.083238  -0.115229
   34  C  9  X   -0.138949  -0.098279  -0.022397   0.068756  -0.045348
   35  C  9  Y    0.045382  -0.035158   0.153833  -0.135042  -0.191716
   36  C  9  Z   -0.055969   0.009530  -0.076292   0.113959   0.077735
   37  C 10  S   -0.092421  -0.158217  -0.020217   0.090306  -0.114474
   38  C 10  X    0.106373  -0.115915  -0.020404  -0.064694   0.050097
   39  C 10  Y    0.056684   0.024021  -0.173991  -0.124930  -0.161132
   40  C 10  Z   -0.053190  -0.002662   0.103935   0.108574   0.068323
   41  C 11  S   -0.000687   0.100598  -0.183079  -0.194481   0.020400
   42  C 11  X   -0.102309   0.050938  -0.004249   0.030743   0.009684
   43  C 11  Y    0.036916   0.062242   0.045246  -0.013036   0.086429
   44  C 11  Z    0.032115  -0.165997  -0.139392   0.000794  -0.161669
   45  C 12  S    0.138839  -0.012925  -0.232111   0.022299   0.186434
   46  C 12  X   -0.170191   0.004604  -0.077690   0.004601   0.103219
   47  C 12  Y    0.014415   0.218036   0.000739   0.147056  -0.018306
   48  C 12  Z   -0.050699   0.003116  -0.027218   0.002614   0.039765
   49  C 13  S    0.109251  -0.054943   0.015544   0.074819  -0.002505
   50  C 13  X   -0.073144   0.092619   0.045924   0.044832   0.044951
   51  C 13  Y   -0.131842  -0.015100   0.099566   0.043853  -0.010343
   52  C 13  Z   -0.161852   0.109541   0.106480   0.067908   0.046600
   53  C 14  S    0.109780   0.058311   0.019741  -0.075887   0.004559
   54  C 14  X   -0.081844  -0.069808   0.044076  -0.042894   0.056455
   55  C 14  Y    0.134331  -0.031399  -0.102771   0.039320   0.006619
[...]
   37  C 10  S    0.001876   0.005076  -0.011271   0.005656  -0.133354
   38  C 10  X    0.000409   0.016058  -0.012675   0.010636  -0.175370
   39  C 10  Y    0.030622   0.075638  -0.042575   0.051188  -0.108505
   40  C 10  Z   -0.053436   0.109893  -0.086221   0.011778  -0.162914
   41  C 11  S   -0.042146   0.011323   0.001565  -0.025797   0.161307
   42  C 11  X   -0.080004   0.039430  -0.022093  -0.042059   0.089877
   43  C 11  Y   -0.261654   0.031345  -0.099625  -0.160948   0.252653
   44  C 11  Z   -0.089088   0.015545  -0.026388  -0.075293   0.137474
   45  C 12  S    0.027248  -0.003323   0.014340   0.020155   0.159335
   46  C 12  X   -0.058783   0.018641  -0.022852  -0.022633  -0.086631
   47  C 12  Y   -0.016526   0.013831   0.000649  -0.015083   0.005022
   48  C 12  Z    0.299974  -0.071989  -0.050748   0.068414   0.347565
   49  C 13  S   -0.016398   0.022147  -0.029321   0.110720   0.027609
   50  C 13  X   -0.065525   0.011026  -0.167661   0.224660   0.037102
   51  C 13  Y   -0.027832   0.017236  -0.102367   0.039463   0.014751
   52  C 13  Z    0.086456   0.030614   0.179896  -0.170446   0.003055
   53  C 14  S    0.011850   0.005930  -0.026563  -0.124243  -0.024919
   54  C 14  X    0.064122   0.142321  -0.098448  -0.250072  -0.015370
   55  C 14  Y   -0.009991  -0.058781   0.080582   0.059139  -0.001175
   56  C 14  Z   -0.055019  -0.176700   0.083575   0.193752   0.006348
   57  C 15  S    0.002338  -0.026973   0.050238   0.043034   0.022058
   58  C 15  X   -0.001799  -0.071741   0.078924   0.086848   0.013330
   59  C 15  Y   -0.010616   0.096102  -0.129664  -0.046587  -0.008976
   60  C 15  Z   -0.045649   0.164152  -0.194534  -0.016968   0.006159
   61  C 16  S   -0.004653  -0.020648   0.051189  -0.026172   0.036397
   62  C 16  X    0.033527  -0.021495   0.112476  -0.066852  -0.005531
   63  C 16  Y    0.029109  -0.024924   0.171220  -0.018034   0.060189
   64  C 16  Z   -0.086537   0.030235  -0.269989  -0.032914   0.002376
   65  C 17  S    0.024664  -0.000050  -0.000066  -0.067288  -0.038565
   66  C 17  X    0.000012   0.024262  -0.043224   0.000008   0.000381
   67  C 17  Y   -0.004071   0.000032  -0.000056  -0.063068  -0.023255
   68  C 17  Z    0.023876  -0.000075   0.000056   0.420568   0.001053
   69  C 18  S   -0.027258   0.000060   0.000025   0.055723   0.005249
   70  C 18  X   -0.000021   0.013115  -0.049043   0.000039   0.000179
   71  C 18  Y    0.029549  -0.000038  -0.000024  -0.026143   0.036675
   72  C 18  Z    0.184437  -0.000246  -0.000169  -0.377878  -0.007441
   73  C 19  S    0.034325  -0.004537  -0.011547   0.024091  -0.088815
   74  C 19  X   -0.067264   0.011104   0.027857  -0.060934   0.109214
   75  C 19  Y    0.212348  -0.038261  -0.203488   0.109591  -0.138966
   76  C 19  Z   -0.038248   0.013356   0.020420  -0.013598  -0.011116
   77  C 20  S    0.034279   0.004377   0.011445   0.024074  -0.086955
   78  C 20  X    0.067199   0.010790   0.027590   0.060895  -0.108413
   79  C 20  Y    0.212749   0.037442   0.203405   0.109773  -0.133826
   80  C 20  Z   -0.038331  -0.013221  -0.020352  -0.013622  -0.012855
   81  C 21  S   -0.042112  -0.011101  -0.001551  -0.025703   0.161430
   82  C 21  X    0.080407   0.039149  -0.022258   0.042150  -0.090073
   83  C 21  Y   -0.261810  -0.030302   0.099839  -0.160981   0.253232
   84  C 21  Z   -0.089200  -0.015188   0.026441  -0.075349   0.136125
   85  C 22  S    0.007136   0.040624   0.011323  -0.023072  -0.031311
   86  C 22  X   -0.031459  -0.051796   0.002067   0.050677   0.029470
   87  C 22  Y   -0.087584  -0.306566   0.053684   0.058882   0.003427
   88  C 22  Z   -0.016515  -0.065043  -0.008855  -0.000614  -0.030196
   89  C 23  S    0.007011  -0.040544  -0.011304  -0.023126  -0.032169
   90  C 23  X    0.031382  -0.052051   0.002099  -0.050800  -0.029911
   91  C 23  Y   -0.086568   0.306780  -0.053636   0.059209   0.007106
   92  C 23  Z   -0.016279   0.065131   0.008897  -0.000545  -0.029347
   93  C 24  S    0.002398   0.026909  -0.050203   0.043081   0.022445
   94  C 24  X    0.001623  -0.071613   0.078737  -0.086936  -0.014149
   95  C 24  Y   -0.010874  -0.096013   0.129694  -0.046686  -0.009118
   96  C 24  Z   -0.046086  -0.163946   0.194527  -0.017100   0.005068
   97  C 25  S   -0.004666   0.020665  -0.051055  -0.026249   0.037217
   98  C 25  X   -0.033543  -0.021406   0.112600   0.066951   0.005441
   99  C 25  Y    0.029006   0.024868  -0.171056  -0.017951   0.061942
  100  C 25  Z   -0.086481  -0.029980   0.270021  -0.032952   0.001309
  101  C 26  S   -0.016458  -0.022090   0.029410   0.110969   0.027808
  102  C 26  X    0.065380   0.010823  -0.167776  -0.224887  -0.038229
  103  C 26  Y   -0.027731  -0.017120   0.102208   0.039367   0.014532
  104  C 26  Z    0.086202  -0.030900  -0.179944  -0.170561   0.002445
  105  C 27  S    0.011873  -0.005967   0.026457  -0.124396  -0.025751
  106  C 27  X   -0.063730   0.142410  -0.098180   0.250315   0.017837
  107  C 27  Y   -0.009947   0.058946  -0.080610   0.059424  -0.000074
  108  C 27  Z   -0.054455   0.176802  -0.083455   0.194037   0.007986
  109  C 28  S   -0.034224   0.045173   0.037119  -0.030688  -0.042555
  110  C 28  X    0.223603  -0.212563  -0.163194   0.038773   0.067237
  111  C 28  Y   -0.109077   0.151902   0.071656  -0.000139  -0.093532
  112  C 28  Z   -0.032583   0.021141   0.052120   0.043145   0.014963
  113  C 29  S    0.042359  -0.005677  -0.058557  -0.011358  -0.040796
  114  C 29  X   -0.228459   0.029080   0.234436  -0.000741   0.064557
  115  C 29  Y    0.022059  -0.047992  -0.018394   0.017181   0.020160
  116  C 29  Z    0.113150  -0.009271  -0.163516  -0.007837  -0.082892
  117  C 30  S    0.005813  -0.070398  -0.005065   0.040672   0.015459
  118  C 30  X   -0.026776   0.261578   0.033972  -0.020169  -0.014355
  119  C 30  Y   -0.059439   0.199455   0.067522   0.016557   0.012560
  120  C 30  Z    0.006434  -0.053789   0.020617  -0.044610   0.009172

                     66         67         68         69         70
                   -0.0528    -0.0470    -0.0395    -0.0369    -0.0338
                     A          A          A          A          A   
    1  C  1  S    0.036914   0.148119   0.158070  -0.173007   0.083265
    2  C  1  X    0.070986   0.219606   0.153444  -0.195285   0.081345
    3  C  1  Y   -0.035397  -0.185315  -0.032315   0.058295  -0.061356
    4  C  1  Z   -0.021856   0.001228   0.042857  -0.029797  -0.023166
    5  C  2  S   -0.005090  -0.197358  -0.084391   0.047209  -0.047315
    6  C  2  X   -0.011517  -0.111832  -0.061222   0.107862  -0.046003
    7  C  2  Y    0.003787   0.281882   0.057544  -0.052334   0.055987
    8  C  2  Z    0.049107  -0.141214  -0.037864   0.051520  -0.049151
    9  C  3  S   -0.019633  -0.015036  -0.233163   0.220156  -0.040474
   10  C  3  X   -0.016626   0.007531  -0.239513   0.239166   0.003387
   11  C  3  Y    0.032120   0.072990  -0.011343   0.003873   0.019228
   12  C  3  Z   -0.006856   0.009565  -0.174540   0.135868   0.045381
   13  C  4  S    0.061676   0.091248  -0.009217  -0.020005   0.022958
   14  C  4  X   -0.021280  -0.120740   0.026071  -0.003722  -0.038745
   15  C  4  Y   -0.179577  -0.130367  -0.040766  -0.059545  -0.044006
   16  C  4  Z    0.287067   0.035523  -0.080809   0.013421   0.049175
   17  C  5  S   -0.063079   0.091283  -0.009106   0.020086   0.022873
   18  C  5  X   -0.023369   0.121063  -0.026086  -0.003680   0.038825
   19  C  5  Y    0.180341  -0.130841  -0.040696   0.059683  -0.044129
   20  C  5  Z   -0.290543   0.036215  -0.080991  -0.013265   0.049456
   21  C  6  S    0.007525  -0.032876   0.145951  -0.106699  -0.007838
   22  C  6  X    0.020319  -0.001752   0.147017  -0.130281  -0.008526
   23  C  6  Y   -0.057604   0.009273   0.003273  -0.006832   0.004888
   24  C  6  Z    0.014993  -0.070026   0.118659  -0.035843  -0.101343
   25  C  7  S    0.005765  -0.197195  -0.084377  -0.047014  -0.047391
   26  C  7  X   -0.011195   0.111760   0.061420   0.107763   0.045910
   27  C  7  Y   -0.004385   0.282035   0.057709   0.052395   0.056173
   28  C  7  Z   -0.048438  -0.141176  -0.037969  -0.051486  -0.049120
   29  C  8  S   -0.002625  -0.074692   0.210550  -0.191159   0.029716
   30  C  8  X   -0.025592  -0.110477   0.236066  -0.237953   0.020666
   31  C  8  Y   -0.018366  -0.104332   0.116611  -0.107313   0.005313
   32  C  8  Z    0.018090   0.014942   0.029611  -0.023050  -0.017853
   33  C  9  S   -0.083462  -0.005738   0.007779  -0.028453  -0.006620
   34  C  9  X    0.036331   0.021494  -0.002766   0.005245   0.002780
   35  C  9  Y   -0.217475  -0.064559   0.081565   0.016383  -0.018552
   36  C  9  Z   -0.344655   0.015564  -0.072996  -0.063527   0.038608
   37  C 10  S    0.080680  -0.005881   0.007766   0.028400  -0.006787
   38  C 10  X    0.032574  -0.021511   0.002680   0.005199  -0.002810
   39  C 10  Y    0.215440  -0.065083   0.081530  -0.016618  -0.018758
   40  C 10  Z    0.341771   0.014767  -0.072930   0.063714   0.038398
   41  C 11  S    0.012834   0.066049  -0.130211   0.059856   0.027378
   42  C 11  X   -0.000890   0.070529  -0.108468   0.106187  -0.000641
   43  C 11  Y    0.033842   0.117470  -0.092461   0.024332   0.057149
   44  C 11  Z   -0.069045   0.046947  -0.054997   0.007425   0.007674
   45  C 12  S   -0.004475  -0.032885   0.146105   0.106322  -0.007892
   46  C 12  X    0.018590   0.001808  -0.147436  -0.130066   0.008532
   47  C 12  Y    0.057901   0.009170   0.003175   0.006768   0.004843
   48  C 12  Z   -0.008327  -0.070086   0.118741   0.035675  -0.101351
   49  C 13  S    0.009255   0.112992  -0.096040   0.085177  -0.055115
   50  C 13  X    0.058700   0.104406  -0.085623   0.125856  -0.077001
   51  C 13  Y   -0.010167   0.035740  -0.067209   0.109660  -0.131035
   52  C 13  Z   -0.033277  -0.050838  -0.060213   0.008752   0.111365
   53  C 14  S   -0.044449  -0.102403  -0.034835   0.075694  -0.106368
   54  C 14  X   -0.127507  -0.084028  -0.020280   0.088138  -0.106729
   55  C 14  Y    0.056390   0.005732   0.059868  -0.105526   0.138540
   56  C 14  Z    0.082596  -0.045093  -0.079283   0.022146   0.104322
   57  C 15  S    0.020377  -0.044949  -0.000246  -0.067523   0.147273
   58  C 15  X    0.042600   0.013977  -0.011765  -0.037309   0.105016
   59  C 15  Y   -0.006196   0.121711   0.034620   0.071501  -0.169624
   60  C 15  Z   -0.055667   0.078856   0.003982   0.093813  -0.245967
   61  C 16  S    0.043253  -0.044458   0.009357  -0.056803   0.138391
   62  C 16  X    0.002653  -0.069425   0.009208  -0.041456   0.091023
   63  C 16  Y    0.089170  -0.014179  -0.053941  -0.045353   0.198945
   64  C 16  Z   -0.054425   0.053406   0.014198   0.083638  -0.239686
   65  C 17  S   -0.000474  -0.026437  -0.006628  -0.000050  -0.106051
   66  C 17  X   -0.039987   0.000016   0.000137   0.081601   0.000011
   67  C 17  Y   -0.000252   0.067065  -0.000654  -0.000018  -0.175842
   68  C 17  Z    0.000254   0.030198  -0.054028   0.000277   0.181510
   69  C 18  S    0.000139   0.080985  -0.028055   0.000051  -0.102608
   70  C 18  X   -0.020536   0.000102   0.000103   0.091116  -0.000167
   71  C 18  Y    0.000336  -0.042077  -0.002860   0.000083   0.182436
   72  C 18  Z   -0.000353  -0.155104   0.001129  -0.000045   0.204616
   73  C 19  S    0.094488  -0.020101   0.047963   0.018088  -0.052222
   74  C 19  X   -0.037159   0.025391  -0.070671   0.020567   0.071031
   75  C 19  Y    0.269324  -0.050225   0.055092  -0.011079  -0.083614
   76  C 19  Z   -0.088869  -0.006539  -0.008166   0.028508   0.061530
   77  C 20  S   -0.096201  -0.019834   0.047972  -0.018255  -0.052261
   78  C 20  X   -0.039140  -0.025268   0.070692   0.020359  -0.071080
   79  C 20  Y   -0.272217  -0.049670   0.055282   0.010948  -0.083789
   80  C 20  Z    0.088692  -0.006749  -0.008297  -0.028506   0.061608
   81  C 21  S   -0.009494   0.066111  -0.130363  -0.059449   0.027267
   82  C 21  X   -0.002739  -0.070735   0.108905   0.105976   0.000605
   83  C 21  Y   -0.028769   0.117591  -0.092528  -0.024066   0.057050
   84  C 21  Z    0.071848   0.046837  -0.055120  -0.007334   0.007580
   85  C 22  S   -0.043890   0.093203   0.032473  -0.028668  -0.021308
   86  C 22  X    0.022741  -0.111728  -0.047978   0.031961   0.031261
   87  C 22  Y    0.189451  -0.088916  -0.016826   0.127761   0.029213
   88  C 22  Z    0.043441   0.008066  -0.002970   0.062875   0.068531
   89  C 23  S    0.043406   0.093340   0.032597   0.028572  -0.021537
   90  C 23  X    0.022474   0.111864   0.048115   0.031946  -0.031418
   91  C 23  Y   -0.189492  -0.088772  -0.017315  -0.127708   0.029604
   92  C 23  Z   -0.043995   0.008082  -0.003134  -0.062895   0.068713
   93  C 24  S   -0.019929  -0.044767  -0.000123   0.067570   0.147083
   94  C 24  X    0.042170  -0.014219   0.011761  -0.037374  -0.104835
   95  C 24  Y    0.006193   0.121538   0.034456  -0.071684  -0.169561
   96  C 24  Z    0.055835   0.078669   0.003824  -0.093939  -0.245936
   97  C 25  S   -0.042550  -0.044346   0.009593   0.056811   0.138278
   98  C 25  X    0.002956   0.069490  -0.009412  -0.041474  -0.091228
   99  C 25  Y   -0.087932  -0.013920  -0.053750   0.045584   0.198956
  100  C 25  Z    0.054377   0.053325   0.013847  -0.083887  -0.239861
  101  C 26  S   -0.008432   0.113149  -0.096459  -0.084924  -0.055195
  102  C 26  X    0.057554  -0.104589   0.086155   0.125620   0.077141
  103  C 26  Y    0.010533   0.035637  -0.067451  -0.109420  -0.130930
  104  C 26  Z    0.033165  -0.050825  -0.060147  -0.008665   0.111391
  105  C 27  S    0.043586  -0.102581  -0.034828  -0.075721  -0.106246
  106  C 27  X   -0.126696   0.084329   0.020240   0.088196   0.106563
  107  C 27  Y   -0.056401   0.005932   0.060133   0.105580   0.138640
  108  C 27  Z   -0.082358  -0.044853  -0.079465  -0.021874   0.104249
  109  C 28  S    0.001604  -0.074857   0.211105   0.190611   0.029729
  110  C 28  X   -0.023957   0.110809  -0.236803  -0.237336  -0.020493
  111  C 28  Y    0.016277  -0.104393   0.116785   0.106808   0.005241
  112  C 28  Z   -0.017764   0.014985   0.029604   0.022968  -0.017925
  113  C 29  S    0.018812  -0.014952  -0.233693  -0.219630  -0.040405
  114  C 29  X   -0.015391  -0.007766   0.239992   0.238449  -0.003558
  115  C 29  Y   -0.031576   0.073098  -0.011212  -0.003596   0.019247
  116  C 29  Z    0.005289   0.009693  -0.174846  -0.135414   0.045467
  117  C 30  S   -0.036245   0.148149   0.158363   0.172720   0.083212
  118  C 30  X    0.070134  -0.219655  -0.153782  -0.194973  -0.081255
  119  C 30  Y    0.035275  -0.185626  -0.032488  -0.058426  -0.061451
  120  C 30  Z    0.021999   0.001137   0.042963   0.029644  -0.023174

     ----------------------------------------------------------------
     PROPERTY VALUES FOR THE RHF   SELF-CONSISTENT FIELD WAVEFUNCTION
     ----------------------------------------------------------------

                    -------------
                    MOPAC CHARGES
                    -------------
         ATOM NO.   TYPE          CHARGE        ATOM  ELECTRON DENSITY
           1         C             -0.0404          4.0404
           2         C              0.0144          3.9856
           3         C             -0.0053          4.0053
           4         C              0.0049          3.9951
           5         C              0.0049          3.9951
           6         C             -0.0031          4.0031
           7         C              0.0145          3.9855
           8         C              0.0217          3.9783
           9         C              0.0059          3.9941
          10         C              0.0061          3.9939
          11         C             -0.0096          4.0096
          12         C             -0.0029          4.0029
          13         C             -0.0160          4.0160
          14         C              0.0499          3.9501
          15         C             -0.0491          4.0491
          16         C             -0.0056          4.0056
          17         C             -0.0041          4.0041
          18         C              0.0409          3.9591
          19         C              0.0029          3.9971
          20         C              0.0031          3.9969
          21         C             -0.0094          4.0094
          22         C              0.0106          3.9894
          23         C              0.0106          3.9894
          24         C             -0.0491          4.0491
          25         C             -0.0055          4.0055
          26         C             -0.0160          4.0160
          27         C              0.0500          3.9500
          28         C              0.0217          3.9783
          29         C             -0.0054          4.0054
          30         C             -0.0405          4.0405

          ---------------------
          ELECTROSTATIC MOMENTS
          ---------------------

 POINT   1           X           Y           Z (ANGS)      CHARGE
                 0.000000    0.000000    0.000000        0.00 (A.U.)
         DX          DY          DZ         /D/  (DEBYE)
     0.000063    0.138550    0.078213    0.159102
 ...... END OF PROPERTY EVALUATION ......
 CPU     0: STEP CPU TIME=     0.06 TOTAL CPU TIME=          1.0 (      0.0 MIN)
 TOTAL WALL CLOCK TIME=          1.0 SECONDS, CPU UTILIZATION IS    93.35%
  $VIB   
          IVIB=   0 IATOM=   0 ICOORD=   0 E=     -129.4907296771
  9.122736053E-05 1.563952358E-04 6.849526397E-05-1.661578319E-04-1.052977420E-04
  7.670306770E-05 9.121374830E-05-1.753099326E-04-1.026683659E-04-2.913750247E-06
 -2.351158038E-04 8.490474033E-05-1.041823257E-04-5.511221354E-05-1.306546244E-04
  4.253090681E-05 1.541541819E-04 2.977315076E-04 2.257388410E-04 2.611209493E-08
  1.472756561E-05 1.237259402E-04-2.396999253E-05-1.786247509E-04-5.326585891E-05
 -1.995801831E-04 3.086030738E-04-7.381140433E-06-2.051818735E-04 1.504258772E-04
  7.761566586E-05 2.333360760E-04 3.121946290E-05 1.738441773E-04 2.002123053E-04
  1.341835613E-04 1.313123391E-04 1.557618963E-04 1.464917544E-05-3.811916218E-05
 -1.685873926E-05-9.177908199E-05 1.472639549E-04-1.659671627E-04-1.141414500E-04
 -2.762284344E-06-1.434947583E-04 1.827468499E-04-6.596138066E-05 2.183201042E-04
 -5.484183100E-04-4.941176510E-05-1.417480364E-06 1.581894354E-04-4.166570893E-05
  1.634657008E-04-2.204040793E-04-9.541924925E-06 9.509163414E-05-4.926312086E-05
 -2.210893266E-05 1.272618595E-04-1.165817086E-05-1.756052313E-04 2.055711671E-05
 -1.257567446E-06 1.505617369E-04 4.748475689E-05 1.066287127E-04-1.180824583E-04
 -1.585359481E-04-6.066062400E-05 3.432601871E-05-2.791117391E-04 2.415347322E-04
 -1.763221262E-04 2.081048529E-04-1.293449958E-04 1.050149805E-04-4.606461239E-05
 -2.250573370E-04-9.881810521E-05 4.154080974E-06-5.280664006E-05-1.677301844E-04
 -7.679457127E-05-6.014875536E-05-9.434549868E-05 1.034868392E-04 1.061448479E-04
  6.299459213E-05 1.385496808E-01 7.821337044E-02
 ......END OF GEOMETRY SEARCH......
 CPU     0: STEP CPU TIME=     0.03 TOTAL CPU TIME=          1.0 (      0.0 MIN)
 TOTAL WALL CLOCK TIME=          1.0 SECONDS, CPU UTILIZATION IS    94.83%
                580000  WORDS OF DYNAMIC MEMORY USED
 EXECUTION OF GAMESS TERMINATED NORMALLY 21:02:49 22-MAY-2023    
 DDI: 263640 bytes (0.3 MB / 0 MWords) used by master data server.

 ----------------------------------------
 CPU timing information for all processes
 ========================================
 0: 0.687500 + 0.390625 = 1.078125
 1: 0.703125 + 0.203125 = 0.906250
 2: 0.296875 + 0.281250 = 0.578125
 3: 0.281250 + 0.218750 = 0.500000
 ----------------------------------------
           Disk usage (in bytes)       
 ========================================
 ----------------------------------------
            Local date and time          
 ========================================
22.05.2023 - 21:02:49,62                          
