          *******************************************************
          *                                                     *
          *          GAMESS VERSION = 30 SEP 2022 (R2)          *
          *                                                     *
          *              doi.org/10.1063/5.0005188              *
          *                                                     *
          *************** 64 BIT WINDOWS VERSION ****************

  GAMESS HAS BEEN MADE POSSIBLE WITH IMPORTANT CONTRIBUTIONS FROM
  THE FOLLOWING INDIVIDUALS (IN ALPHABETICAL ORDER):

     IVANA ADAMOVIC, CHRISTINE AIKENS, TOMOKO AKAMA,
     MELISA ALKAN, YURI ALEXEEV, YURIKO AOKI, POOJA ARORA,
     TOSHIO ASADA, ANDREY ASADCHEV, KIM K. BALDRIDGE,
     PRADIPTA BANDYOPADHYAY, TAYLOR A. BARNES, MARIA BARYSZ,
     ROB BELL, JONATHAN BENTZ, COLLEEN BERTONI,
     JERRY A. BOATZ, BRETT BODE, KURT BRORSEN, KURT R. BRORSEN,
     LAIMUTIS BYTAUTAS, CALEB CARLIN, LAURA CARRINGTON,
     GALINA CHABAN, BENOIT CHAMPAGNE, WEI CHEN, MAHITO CHIBA,
     DAN CHIPMAN, CHEOL HO CHOI, TANNER CULPITT,
     DIPAYAN DATTA, PAUL DAY, ALBERT DEFUSCO,
     NUWAN DESILVA, J. EMILIANO DEUSTUA,
     TIM DUDLEY, MICHEL DUPUIS, STEVEN T. ELBERT,
     DMITRI FEDOROV, KATHERINE FERRERAS, MICHAEL FILATOV,
     ALEX FINDLATER,GRAHAM FLETCHER, MARK FREITAG,
     CHRISTIAN FRIEDL, DAVID GARMER, 
     IGOR S. GERASIMOV, KURT GLAESEMANN,
     MARK S. GORDON, JEFFREY GOUR, FENG LONG GU,
     EMILIE B. GUIDEZ, ANASTASIA GUNINA, SHARON HAMMES-SCHIFFER,
     MASATAKE HARUTA, KIMIHIKO HIRAO, YASUHIRO IKABATA,
     TZVETELIN IORDANOV, STEPHAN IRLE, KAZUYA ISHIMURA,
     JOE IVANIC, FRANK JENSEN, JAN H. JENSEN, VISVALDAS KAIRYS,
     MUNEAKI KAMIYA, MICHIO KATOUDA, NAOAKI KAWAKAMI, DAN KEMP,
     BERNARD KIRTMAN, KAZUO KITAURA, MARIUSZ KLOBUKOWSKI,
     MASATO KOBAYASHI, KONSTANTIN KOMAROV, PRAKASHAN KORAMBATH,
     JACEK KORCHOWIEC, SHIRO KOSEKI, KAROL KOWALSKI,
     JIMMY KROMANN, STANISLAW KUCHARSKI, HENRY KURTZ,
     SAROM SOK LEANG, SEUNGHOON LEE, HUI LI, SHUHUA LI, WEI LI,
     JESSE LUTZ, ALEKSANDR O. LYKHIN, MARCIN MAKOWSKI,
     JOANI MATO, NIKITA MATSUNAGA, BENEDETTA MENNUCCI,
     GRANT MERRILL, NORIYUKI MINEZAWA, VLADIMIR MIRONOV,
     EISAKU MIYOSHI, JOHN A. MONTGOMERY JR., HIROTOSHI MORI,
     JONATHAN MULLIN, MONIKA MUSIAL, SHIGERU NAGASE,
     TAKESHI NAGATA, HIROMI NAKAI, TAKAHITO NAKAJIMA,
     YUYA NAKAJIMA, HARUYUKI NAKANO, HIROYA NAKATA, SEAN NEDD,
     HEATHER NETZLOFF, KIET A. NGUYEN, YOSHIO NISHIMOTO,
     BOSILJKA NJEGIC, RYAN OLSON, MIKE PAK, ROBERTO PEVERATI,
     BUU PHAM, PIOTR PIECUCH, ANNA POMOGAEVA, DAVID POOLE,
     SPENCER PRUITT, OLIVIER QUINET, LUKE ROSKOP,
     KLAUS RUEDENBERG, ANDREW SAND, TOSAPORN SATTASATHUCHANA,
     NOZOMI SAWADA, MICHAEL W. SCHMIDT, PATRICK E. SCHNEIDER,
     JUNJI SEINO, PRACHI SHARMA, JUN SHEN, JIM SHOEMAKER,
     YINAN SHU, DEJUN SI, JONATHAN SKONE, LYUDMILA SLIPCHENKO,
     TONY SMITH, JIE SONG, MARK SPACKMAN, CASPER STEINMANN,
     WALT STEVENS, PEIFENG SU, SHUJUN SU, CHET SWALINA,
     CHINAMI TAKASHIMA, TETSUYA TAKETSUGU, ZHEN TAO,
     NANDUN THELLAMUREGE, SEIKEN TOKURA, JACOPO TOMASI,
     TSUGUKI TOUMA, TAKAO TSUNEDA, HIROAKI UMEDA,
     JORGE LUIS GALVEZ VALLEJO, YALI WANG, SIMON WEBB,
     AARON WEST, THERESA L. WINDUS, MARTA WLOCH,
     PENG XU, KIYOSHI YAGI, SUSUMU YANAGISAWA, YANG YANG,
     SOOHAENG YOO, TAKESHI YOSHIKAWA, FEDERICO ZAHARIEV,
     TOBY ZENG

  WHO ARE SUPPORTED BY THEIR INSTITUTION/UNIVERSITY/COMPANY/GROUP
  (IN ALPHABETICAL ORDER):

     EP ANALYTICS,
     FACULTES UNIVERSITAIRES NOTRE-DAME DE LA PAIX,
     INSTITUTE FOR MOLECULAR SCIENCE, IOWA STATE UNIVERSITY,
     JACKSON STATE UNIVERSITY, JOHANNES KEPLER UNIVERSITY LINZ,
     KYUNGPOOK NATIONAL UNIVERSITY
     KYUSHU UNIVERSITY, MICHIGAN STATE UNIVERSITY,
     MIE UNIVERSITY, THE MOLECULAR SCIENCES SOFTWARE INSTITUTE,
     MOSCOW STATE UNIVERSITY,
     N. COPERNICUS UNIVERSITY, NAGOYA UNIVERSITY,
     NANJING UNIVERSITY, NAT. INST. OF ADVANCED INDUSTRIAL
     SCIENCE AND TECHNOLOGY, NATIONAL INST. OF STANDARDS AND
     TECHNOLOGY, NESMEYANOV INSTITUTE OF ORGANOELEMENT COMPOUNDS
     OF RUSSIAN ACADEMY OF SCIENCES, OSAKA PREFECTURE UNIVERSITY,
     PENNSYLVANIA STATE UNIVERSITY, TOKYO INSTITUTE OF TECHNOLOGY,
     UNIVERSITY OF AARHUS, UNIVERSITY OF ALBERTA,
     UNIVERSITY OF CALIFORNIA AT SANTA BARBARA,
     UNIVERSITY OF COPENHAGEN, UNIVERSITY OF IOWA,
     UNIVERSITY OF MEMPHIS, UNIVERSITY OF MINNESOTA,
     UNIVERSITY OF NEBRASKA, UNIVERSITY OF NEW ENGLAND,
     UNIVERSITY OF NOTRE DAME, UNIVERSITY OF PISA,
     UNIVERSITY OF SILESIA, UNIVERSITY OF TOKYO,
     UNIVERSITY OF ZURICH, WASEDA UNIVERSITY,
     YALE UNIVERSITY

  GAMESS SOFTWARE MANAGEMENT TEAM FOR THIS RELEASE:
     MARK S. GORDON (TEAM LEAD),
     BRETT BODE (SENIOR ADVISOR),
     GIUSEPPE BARCA,
     COLLEEN BERTONI,
     KRISTOPHER KEIPERT (ADVISOR),
     SAROM S. LEANG (DEVELOPMENT LEAD),
     BUU PHAM,
     JACKSON HAYES (WEBSITE ADMINISTRATOR),
     PENG XU


 PARALLEL VERSION RUNNING ON        2 PROCESSORS IN        2 NODES.

 EXECUTION OF GAMESS BEGUN 21:03:08 22-MAY-2023    

            ECHO OF THE FIRST FEW INPUT CARDS -
 INPUT CARD>! (Energy/Geometry) PM3                                                         
 INPUT CARD> $CONTRL                                                                        
 INPUT CARD>COORD=UNIQUE                                                                    
 INPUT CARD>ICHARG=0                                                                        
 INPUT CARD>MAXIT=200                                                                       
 INPUT CARD>MULT=1                                                                          
 INPUT CARD>RUNTYP=OPTIMIZE                                                                 
 INPUT CARD>SCFTYP=RHF                                                                      
 INPUT CARD>UNITS=ANGS                                                                      
 INPUT CARD>! DFTTYP=PBE                                                                    
 INPUT CARD> $END                                                                           
 INPUT CARD> $DFT                                                                           
 INPUT CARD>METHOD=GRID                                                                     
 INPUT CARD> $END                                                                           
 INPUT CARD> $BASIS                                                                         
 INPUT CARD>! EXTFIL=.T.                                                                    
 INPUT CARD>! GBASIS=GEGSSBAS                                                               
 INPUT CARD>! NGAUSS=6                                                                      
 INPUT CARD>GBASIS=PM3                                                                      
 INPUT CARD>! NDFUNC=1                                                                      
 INPUT CARD>! NPFUNC=1                                                                      
 INPUT CARD> $END                                                                           
 INPUT CARD> $SCF                                                                           
 INPUT CARD>DAMP=.F.                                                                        
 INPUT CARD>DEM=.F.                                                                         
 INPUT CARD>DIIS=.F.                                                                        
 INPUT CARD>DIRSCF=.T.                                                                      
 INPUT CARD>EXTRAP=.T.                                                                      
 INPUT CARD>RSTRCT=.F.                                                                      
 INPUT CARD>SHIFT=.F.                                                                       
 INPUT CARD>SOSCF=.T.                                                                       
 INPUT CARD> $END                                                                           
 INPUT CARD> $STATPT                                                                        
 INPUT CARD>METHOD=QA                                                                       
 INPUT CARD>NSTEP=100                                                                       
 INPUT CARD>OPTTOL=0.001                                                                    
 INPUT CARD> $END                                                                           
 INPUT CARD> $GUESS                                                                         
 INPUT CARD>GUESS=HUCKEL                                                                    
 INPUT CARD> $END                                                                           
 INPUT CARD> $SYSTEM                                                                        
 INPUT CARD>MWORDS=10                                                                       
 INPUT CARD> $END                                                                           
 INPUT CARD> $DATA                                                                          
 INPUT CARD>C30 FULLERENE                                                                   
 INPUT CARD>C1                                                                              
 INPUT CARD>C	6.0	2.59450	1.07210	-0.33560                                                  
 INPUT CARD>C	6.0	1.40670	1.73520	-0.55320                                                  
 INPUT CARD>C	6.0	-0.69040	1.16450	-1.62330                                                 
 INPUT CARD>C	6.0	0.70180	1.15590	-1.62830                                                  
     10000000 WORDS OF MEMORY AVAILABLE

     BASIS OPTIONS
     -------------
     GBASIS=PM3          IGAUSS=       0      POLAR=NONE    
     NDFUNC=       0     NFFUNC=       0     DIFFSP=       F
     NPFUNC=       0      DIFFS=       F     BASNAM=        


     RUN TITLE
     ---------
 C30 FULLERENE                                                                   

 THE POINT GROUP OF THE MOLECULE IS C1      
 THE ORDER OF THE PRINCIPAL AXIS IS     0

 ATOM      ATOMIC                      COORDINATES (BOHR)
           CHARGE         X                   Y                   Z
 C           6.0     4.9028940751        2.0259752314       -0.6341920415
 C           6.0     2.6582775469        3.2790525339       -1.0453964164
 C           6.0    -1.3046668219        2.2005859127       -3.0675921959
 C           6.0     1.3262096982        2.1843342692       -3.0770408258
 C           6.0     4.8862644865       -0.0170075339       -2.2387583777
 C           6.0     2.6868124093       -0.0313694514       -3.6072979380
 C           6.0     4.9072404449       -2.0734073537       -0.6549790273
 C           6.0    -1.3228081914       -2.1918931732       -3.0759069902
 C           6.0     1.3139264793       -2.2370576243       -3.0811982230
 C           6.0     2.6641356975       -3.3382009573       -1.0767658678
 C           6.0    -2.7285753537        0.0145508901       -3.5566532815
 C           6.0     4.9644991423       -1.2617700420        1.8016647567
 C           6.0    -1.3063675753       -3.5787630755        1.1391268254
 C           6.0     1.3207294928       -3.5778182126        1.1820236053
 C           6.0     2.6979617927       -2.0392033134        2.8515965155
 C           6.0    -2.7153472718       -3.3259177384       -1.0984977167
 C           6.0     4.9707352381        1.3258317530        1.8574116733
 C           6.0    -1.2789665485       -0.0054802054        3.7488384144
 C           6.0     1.3534217524        0.0461093141        3.7819086192
 C           6.0     2.7340555590        2.1559883794        2.9190597332
 C           6.0    -2.6907808339       -2.0637697512        2.8266521324
 C           6.0    -1.2876592880        3.6199591021        1.1687955234
 C           6.0     1.3322568213        3.6486829371        1.2186842895
 C           6.0    -2.6647026153        3.3183588344       -1.0780886760
 C           6.0    -2.6728284370        2.0681161210        2.8361007624
 C           6.0    -4.8998705136        2.0652815320       -0.6561128629
 C           6.0    -4.9178229104        1.2532662751        1.7975073595
 C           6.0    -4.9609086630       -1.3354693555        1.7655709903
 C           6.0    -4.9977583197       -2.1070444763       -0.7177179301
 C           6.0    -4.9752705805       -0.0181413695       -2.2294987203

          INTERNUCLEAR DISTANCES (ANGS.)
          ------------------------------

                1 C          2 C          3 C          4 C          5 C     

   1 C       0.0000000    1.3776502 *  3.5294868    2.2935582 *  1.3747092 *
   2 C       1.3776502 *  0.0000000    2.4225278 *  1.4100754 *  2.1979688 *
   3 C       3.5294868    2.4225278 *  0.0000000    1.3922355 *  3.5074640  
   4 C       2.2935582 *  1.4100754 *  1.3922355 *  0.0000000    2.2589494 *
   5 C       1.3747092 *  2.1979688 *  3.5074640    2.2589494 *  0.0000000  
   6 C       2.2440512 *  2.2151645 *  2.4367916 *  1.4042409 *  1.3708343 *
   7 C       2.1693291 *  3.0792063    4.1893834    3.2109562    1.3735771 *
   8 C       4.1839069    3.7382267    2.3244240 *  2.7070229 *  3.5095077  
   9 C       3.2206849    3.1917434    2.7266700 *  2.3397101 *  2.2699130 *
  10 C       3.0848037    3.5017407    3.7565228    3.1878061    2.2021919 *
  11 C       4.4534576    3.5883355    1.4046088 *  2.4467951 *  4.0895381  
  12 C       2.1655225 *  3.0875797    4.5828098    3.7010096    2.2376486 *
  13 C       4.5247805    4.3482848    3.7826870    4.0273074    4.1816691  
  14 C       3.6483708    3.8802483    4.0419546    3.7917336    3.2229528  
  15 C       3.0645771    3.4890392    4.3967479    3.9197968    3.1212334  
  16 C       4.9328840    4.5059154    3.1930748    3.7646672    4.4284764  
  17 C       1.3700370 *  2.2193183 *  4.2466772    3.2778426    2.2815434 *
  18 C       4.1517039    3.7146107    3.7913293    4.0361642    4.5478935  
  19 C       3.1759704    3.1510470    4.0516758    3.8019069    3.6941497  
  20 C       2.2039684 *  2.1808221 *  3.8215710    3.2593219    3.1731668  
  21 C       4.9178579    4.4949219    3.9190625    4.3968290    4.9431850  
  22 C       3.5147290    2.4011636 *  2.3642968 *  2.7456323 *  4.1987567  
  23 C       2.2954207 *  1.4021718 *  2.7711168 *  2.4016491 *  3.2630190  
  24 C       4.0693634    2.8169299 *  1.4057838 *  2.4370438 *  4.4112225  
  25 C       4.4095512    3.5479777    3.2076613    3.7780089    4.9426918  
  26 C       5.1874547    4.0560801    2.2919564 *  3.5355670    5.3603627  
  27 C       5.3694341    4.4142141    3.2457813    4.2207003    5.6506905  
  28 C       5.6588023    4.9428483    3.7129716    4.5940316    5.6683706  
  29 C       5.6775502    4.9565663    3.2498771    4.2325880    5.4063097  
  30 C       5.4043884    4.4446051    2.3126004 *  3.5607723    5.2185023  

                6 C          7 C          8 C          9 C         10 C     

   1 C       2.2440512 *  2.1693291 *  4.1839069    3.2206849    3.0848037  
   2 C       2.2151645 *  3.0792063    3.7382267    3.1917434    3.5017407  
   3 C       2.4367916 *  4.1893834    2.3244240 *  2.7266700 *  3.7565228  
   4 C       1.4042409 *  3.2109562    2.7070229 *  2.3397101 *  3.1878061  
   5 C       1.3708343 *  1.3735771 *  3.5095077    2.2699130 *  2.2021919 *
   6 C       0.0000000    2.2336299 *  2.4265703 *  1.4027347 *  2.2035160 *
   7 C       2.2336299 *  0.0000000    3.5375187    2.2959967 *  1.3808511 *
   8 C       2.4265703 *  3.5375187    0.0000000    1.3955075 *  2.4368775 *
   9 C       1.4027347 *  2.2959967 *  1.3955075 *  0.0000000    1.4053946 *
  10 C       2.2035160 *  1.3808511 *  2.4368775 *  1.4053946 *  0.0000000  
  11 C       2.8659283 *  4.4615940    1.4076208 *  2.4615344 *  3.6074258  
  12 C       3.1732382    1.3694482 *  4.2395675    3.2672235    2.2381508 *
  13 C       3.7812311    3.5139057    2.3481514 *  2.7229375 *  2.4095264 *
  14 C       3.2353934    2.2761323 *  2.7516735 *  2.3649396 *  1.3964953 *
  15 C       3.5792431    2.1932564 *  3.7911110    3.2254972    2.1895773 *
  16 C       3.6019621    4.0945236    1.4135397 *  2.4452206 *  2.8467306 *
  17 C       3.2154366    2.2370473 *  4.6229838    3.7588834    3.1610535  
  18 C       4.4223775    4.1646985    3.7923765    4.0423196    3.7396601  
  19 C       3.9735647    3.2104949    4.0715881    3.8275521    3.2091991  
  20 C       3.6424970    3.1477940    4.4683949    4.0063546    3.5951987  
  21 C       4.5658177    4.4227245    3.2070049    3.7779848    3.5709067  
  22 C       3.8137380    4.5557631    3.8084722    4.0693469    4.3980717  
  23 C       3.2906023    3.7055045    4.0854819    3.8572364    3.9550305  
  24 C       3.5990392    4.9240359    3.1818841    3.7681206    4.5121882  
  25 C       4.5721336    4.9300834    3.9217022    4.4097697    4.5219729  
  26 C       4.4483383    5.6328966    3.2090277    4.2002953    4.9241574  
  27 C       4.9836217    5.6404764    3.6869424    4.5772709    4.9309869  
  28 C       4.9938195    5.3909627    3.2366077    4.2227413    4.4347173  
  29 C       4.4811886    5.2416354    2.3110882 *  3.5671535    4.1109029  
  30 C       4.1196380    5.4060903    2.2933644 *  3.5578260    4.4498778  

               11 C         12 C         13 C         14 C         15 C     

   1 C       4.4534576    2.1655225 *  4.5247805    3.6483708    3.0645771  
   2 C       3.5883355    3.0875797    4.3482848    3.8802483    3.4890392  
   3 C       1.4046088 *  4.5828098    3.7826870    4.0419546    4.3967479  
   4 C       2.4467951 *  3.7010096    4.0273074    3.7917336    3.9197968  
   5 C       4.0895381    2.2376486 *  4.1816691    3.2229528    3.1212334  
   6 C       2.8659283 *  3.1732382    3.7812311    3.2353934    3.5792431  
   7 C       4.4615940    1.3694482 *  3.5139057    2.2761323 *  2.1932564 *
   8 C       1.4076208 *  4.2395675    2.3481514 *  2.7516735 *  3.7911110  
   9 C       2.4615344 *  3.2672235    2.7229375 *  2.3649396 *  3.2254972  
  10 C       3.6074258    2.2381508 *  2.4095264 *  1.3964953 *  2.1895773 *
  11 C       0.0000000    5.0069218    3.2182040    3.8070265    4.5745798  
  12 C       5.0069218    0.0000000    3.5549993    2.3081527 *  1.3843777 *
  13 C       3.2182040    3.5549993    0.0000000    1.3903854 *  2.4444009 *
  14 C       3.8070265    2.3081527 *  1.3903854 *  0.0000000    1.4052200 *
  15 C       4.5745798    1.3843777 *  2.4444009 *  1.4052200 *  0.0000000  
  16 C       2.1947421 *  4.4793436    1.4056723 *  2.4567818 *  3.6109434  
  17 C       5.0288809    1.3696217 *  4.2325250    3.2545250    2.2122751 *
  18 C       3.9412863    3.5241224    2.3415538 *  2.7039123 *  2.4109255 *
  19 C       4.4437716    2.2866210 *  2.7597735 *  2.3602327 *  1.4022495 *
  20 C       4.6242023    2.2391467 *  3.8298892    3.2573997    2.2203692 *
  21 C       3.5524876    4.1091257    1.4060137 *  2.4301488 *  2.8516602 *
  22 C       3.2364315    4.2109107    3.8094452    4.0512956    3.7695519  
  23 C       3.8342944    3.2468204    4.0717307    3.8241541    3.2137925  
  24 C       2.1858614 *  4.9493006    3.9005572    4.3812883    4.5183206  
  25 C       3.5532801    4.4427880    3.2029076    3.7627833    3.5779466  
  26 C       2.2031291 *  5.6603598    3.6659186    4.5496684    4.9323713  
  27 C       3.1303980    5.3961996    3.2112201    4.1881206    4.4258848  
  28 C       3.1365500    5.2524795    2.2932658 *  3.5430238    4.1103479  
  29 C       2.2269444 *  5.4561319    2.3211643 *  3.5771553    4.4892423  
  30 C       1.3809445 *  5.7140341    3.2399529    4.2317442    4.9860943  

               16 C         17 C         18 C         19 C         20 C     

   1 C       4.9328840    1.3700370 *  4.1517039    3.1759704    2.2039684 *
   2 C       4.5059154    2.2193183 *  3.7146107    3.1510470    2.1808221 *
   3 C       3.1930748    4.2466772    3.7913293    4.0516758    3.8215710  
   4 C       3.7646672    3.2778426    4.0361642    3.8019069    3.2593219  
   5 C       4.4284764    2.2815434 *  4.5478935    3.6941497    3.1731668  
   6 C       3.6019621    3.2154366    4.4223775    3.9735647    3.6424970  
   7 C       4.0945236    2.2370473 *  4.1646985    3.2104949    3.1477940  
   8 C       1.4135397 *  4.6229838    3.7923765    4.0715881    4.4683949  
   9 C       2.4452206 *  3.7588834    4.0423196    3.8275521    4.0063546  
  10 C       2.8467306 *  3.1610535    3.7396601    3.2091991    3.5951987  
  11 C       2.1947421 *  5.0288809    3.9412863    4.4437716    4.6242023  
  12 C       4.4793436    1.3696217 *  3.5241224    2.2866210 *  2.2391467 *
  13 C       1.4056723 *  4.2325250    2.3415538 *  2.7597735 *  3.8298892  
  14 C       2.4567818 *  3.2545250    2.7039123 *  2.3602327 *  3.2573997  
  15 C       3.6109434    2.2122751 *  2.4109255 *  1.4022495 *  2.2203692 *
  16 C       0.0000000    5.0049101    3.2007640    3.8065399    4.6098614  
  17 C       5.0049101    0.0000000    3.5264278    2.2715413 *  1.3818512 *
  18 C       3.2007640    3.5264278    0.0000000    1.3933774 *  2.4516860 *
  19 C       3.8065399    2.2715413 *  1.3933774 *  0.0000000    1.4102596 *
  20 C       4.6098614    1.3818512 *  2.4516860 *  1.4102596 *  0.0000000  
  21 C       2.1818808 *  4.4629334    1.4080693 *  2.4661976 *  3.6372515  
  22 C       3.9395857    3.5460686    2.3547203 *  2.7280138 *  2.4468841 *
  23 C       4.4399670    2.3091864 *  2.7278600 *  2.3397238 *  1.4084918 *
  24 C       3.5161187    4.4553845    3.1868333    3.7594874    3.6075333  
  25 C       3.5331637    4.0966961    1.4076257 *  2.4361561 *  2.8619146 *
  26 C       3.0870985    5.4041784    3.2102613    4.1961038    4.4610274  
  27 C       3.0949709    5.2330369    2.2842695 *  3.5389096    4.1202500  
  28 C       2.1951176 *  5.4412317    2.3222935 *  3.5830085    4.5130254  
  29 C       1.3839827 *  5.7431409    3.2704742    4.2735838    5.0530345  
  30 C       2.2027890 *  5.7344879    3.7194550    4.6191292    5.0388180  

               21 C         22 C         23 C         24 C         25 C     

   1 C       4.9178579    3.5147290    2.2954207 *  4.0693634    4.4095512  
   2 C       4.4949219    2.4011636 *  1.4021718 *  2.8169299 *  3.5479777  
   3 C       3.9190625    2.3642968 *  2.7711168 *  1.4057838 *  3.2076613  
   4 C       4.3968290    2.7456323 *  2.4016491 *  2.4370438 *  3.7780089  
   5 C       4.9431850    4.1987567    3.2630190    4.4112225    4.9426918  
   6 C       4.5658177    3.8137380    3.2906023    3.5990392    4.5721336  
   7 C       4.4227245    4.5557631    3.7055045    4.9240359    4.9300834  
   8 C       3.2070049    3.8084722    4.0854819    3.1818841    3.9217022  
   9 C       3.7779848    4.0693469    3.8572364    3.7681206    4.4097697  
  10 C       3.5709067    4.3980717    3.9550305    4.5121882    4.5219729  
  11 C       3.5524876    3.2364315    3.8342944    2.1858614 *  3.5532801  
  12 C       4.1091257    4.2109107    3.2468204    4.9493006    4.4427880  
  13 C       1.4060137 *  3.8094452    4.0717307    3.9005572    3.2029076  
  14 C       2.4301488 *  4.0512956    3.8241541    4.3812883    3.7627833  
  15 C       2.8516602 *  3.7695519    3.2137925    4.5183206    3.5779466  
  16 C       2.1818808 *  3.9395857    4.4399670    3.5161187    3.5331637  
  17 C       4.4629334    3.5460686    2.3091864 *  4.4553845    4.0966961  
  18 C       1.4080693 *  2.3547203 *  2.7278600 *  3.1868333    1.4076257 *
  19 C       2.4661976 *  2.7280138 *  2.3397238 *  3.7594874    2.4361561 *
  20 C       3.6372515    2.4468841 *  1.4084918 *  3.6075333    2.8619146 *
  21 C       0.0000000    3.2198169    3.7939650    3.5187298    2.1865264 *
  22 C       3.2198169    0.0000000    1.3867346 *  1.4036370 *  1.4107132 *
  23 C       3.7939650    1.3867346 *  0.0000000    2.4456901 *  2.4339240 *
  24 C       3.5187298    1.4036370 *  2.4456901 *  0.0000000    2.1744003 *
  25 C       2.1865264 *  1.4107132 *  2.4339240 *  2.1744003 *  0.0000000  
  26 C       3.0882738    2.2941761 *  3.5443594    1.3742563 *  2.1917957 *
  27 C       2.1832383 *  2.3172044 *  3.5552109    2.2206670 *  1.3781646 *
  28 C       1.3809189 *  3.2794124    4.2579796    3.1314186    2.2429713 *
  29 C       2.2380242 *  3.7464231    4.6419175    3.1310134    3.1514668  
  30 C       3.1292301    3.2784508    4.2703151    2.2323945 *  3.1446671  

               26 C         27 C         28 C         29 C         30 C     

   1 C       5.1874547    5.3694341    5.6588023    5.6775502    5.4043884  
   2 C       4.0560801    4.4142141    4.9428483    4.9565663    4.4446051  
   3 C       2.2919564 *  3.2457813    3.7129716    3.2498771    2.3126004 *
   4 C       3.5355670    4.2207003    4.5940316    4.2325880    3.5607723  
   5 C       5.3603627    5.6506905    5.6683706    5.4063097    5.2185023  
   6 C       4.4483383    4.9836217    4.9938195    4.4811886    4.1196380  
   7 C       5.6328966    5.6404764    5.3909627    5.2416354    5.4060903  
   8 C       3.2090277    3.6869424    3.2366077    2.3110882 *  2.2933644 *
   9 C       4.2002953    4.5772709    4.2227413    3.5671535    3.5578260  
  10 C       4.9241574    4.9309869    4.4347173    4.1109029    4.4498778  
  11 C       2.2031291 *  3.1303980    3.1365500    2.2269444 *  1.3809445 *
  12 C       5.6603598    5.3961996    5.2524795    5.4561319    5.7140341  
  13 C       3.6659186    3.2112201    2.2932658 *  2.3211643 *  3.2399529  
  14 C       4.5496684    4.1881206    3.5430238    3.5771553    4.2317442  
  15 C       4.9323713    4.4258848    4.1103479    4.4892423    4.9860943  
  16 C       3.0870985    3.0949709    2.1951176 *  1.3839827 *  2.2027890 *
  17 C       5.4041784    5.2330369    5.4412317    5.7431409    5.7344879  
  18 C       3.2102613    2.2842695 *  2.3222935 *  3.2704742    3.7194550  
  19 C       4.1961038    3.5389096    3.5830085    4.2735838    4.6191292  
  20 C       4.4610274    4.1202500    4.5130254    5.0530345    5.0388180  
  21 C       3.0882738    2.1832383 *  1.3809189 *  2.2380242 *  3.1292301  
  22 C       2.2941761 *  2.3172044 *  3.2794124    3.7464231    3.2784508  
  23 C       3.5443594    3.5552109    4.2579796    4.6419175    4.2703151  
  24 C       1.3742563 *  2.2206670 *  3.1314186    3.1310134    2.2323945 *
  25 C       2.1917957 *  1.3781646 *  2.2429713 *  3.1514668    3.1446671  
  26 C       0.0000000    1.3676896 *  2.2094899 *  2.2087482 *  1.3821436 *
  27 C       1.3676896 *  0.0000000    1.3701939 *  2.2215638 *  2.2348926 *
  28 C       2.2094899 *  1.3701939 *  0.0000000    1.3762078 *  2.2260784 *
  29 C       2.2087482 *  2.2215638 *  1.3762078 *  0.0000000    1.3645698 *
  30 C       1.3821436 *  2.2348926 *  2.2260784 *  1.3645698 *  0.0000000  

  * ... LESS THAN  3.000


 TOTAL NUMBER OF BASIS SET SHELLS             =   30
 NUMBER OF CARTESIAN GAUSSIAN BASIS FUNCTIONS =  120
 NUMBER OF ELECTRONS                          =  120
 CHARGE OF MOLECULE                           =    0
 SPIN MULTIPLICITY                            =    1
 NUMBER OF OCCUPIED ORBITALS (ALPHA)          =   60
 NUMBER OF OCCUPIED ORBITALS (BETA )          =   60
 TOTAL NUMBER OF ATOMS                        =   30
 THE NUCLEAR REPULSION ENERGY IS     2850.3903577287

 THE PARAMETERS USED IN THIS CALCULATION ARE DESCRIBED IN:

  C: (PM3): J. J. P. STEWART, J. COMP. CHEM. 10, 209 (1989).                    

 THERE ARE   30 HEAVY AND    0 LIGHT ATOMS,
 YIELDING A TOTAL OF     43500 MOPAC 2E- INTEGRALS.

     $CONTRL OPTIONS
     ---------------
 SCFTYP=RHF          RUNTYP=OPTIMIZE     EXETYP=RUN     
 MPLEVL=       0     CITYP =NONE         CCTYP =NONE         VBTYP =NONE    
 DFTTYP=NONE         TDDFT =NONE    
 MULT  =       1     ICHARG=       0     NZVAR =       0     COORD =UNIQUE  
 PP    =NONE         RELWFN=NONE         LOCAL =NONE         NUMGRD=       F
 ISPHER=      -1     NOSYM =       0     MAXIT =     200     UNITS =ANGS    
 PLTORB=       F     MOLPLT=       F     AIMPAC=       F     FRIEND=        
 NPRINT=       7     IREST =       0     GEOM  =INPUT   
 NORMF =       0     NORMP =       0     ITOL  =      20     ICUT  =       9
 INTTYP=BEST         GRDTYP=BEST         QMTTOL= 1.0E-06

     $SYSTEM OPTIONS
     ---------------
  REPLICATED MEMORY=    10000000 WORDS (ON EVERY NODE).
 DISTRIBUTED MEMDDI=           0 MILLION WORDS IN AGGREGATE,
 MEMDDI DISTRIBUTED OVER   2 PROCESSORS IS           0 WORDS/PROCESSOR.
 TOTAL MEMORY REQUESTED ON EACH PROCESSOR=    10000000 WORDS.
 TIMLIM=      525600.00 MINUTES, OR     365.0 DAYS.
 PARALL= T  BALTYP=  DLB     KDIAG=    0  COREFL= F
 MXSEQ2=     300 MXSEQ3=     150  mem10=         0  mem22=         0

          ----------------
          PROPERTIES INPUT
          ----------------

     MOMENTS            FIELD           POTENTIAL          DENSITY
 IEMOM =       1   IEFLD =       0   IEPOT =       0   IEDEN =       0
 WHERE =COMASS     WHERE =NUCLEI     WHERE =NUCLEI     WHERE =NUCLEI  
 OUTPUT=BOTH       OUTPUT=BOTH       OUTPUT=BOTH       OUTPUT=BOTH    
 IEMINT=       0   IEFINT=       0                     IEDINT=       0
                                                       MORB  =       0
          EXTRAPOLATION IN EFFECT
          SOSCF IN EFFECT
 ORBITAL PRINTING OPTION: NPREO=     1   120     2     1

     -------------------------------
     INTEGRAL TRANSFORMATION OPTIONS
     -------------------------------
     NWORD  =            0
     CUTTRF = 1.0E-09     MPTRAN =       0
     DIRTRF =       T     AOINTS =DUP     

          ----------------------
          INTEGRAL INPUT OPTIONS
          ----------------------
 NOPK  =       1 NORDER=       0 SCHWRZ=       T

     ------------------------------------------
     THE POINT GROUP IS C1 , NAXIS= 0, ORDER= 1
     ------------------------------------------

     DIMENSIONS OF THE SYMMETRY SUBSPACES ARE
 A   =  120

 ..... DONE SETTING UP THE RUN .....
 CPU     0: STEP CPU TIME=     0.06 TOTAL CPU TIME=          0.1 (      0.0 MIN)
 TOTAL WALL CLOCK TIME=          0.1 SECONDS, CPU UTILIZATION IS    65.79%


          -----------------------------
          STATIONARY POINT LOCATION RUN
          -----------------------------

 OBTAINING INITIAL HESSIAN, HESS=GUESS   
 CARTESIAN COORDINATE OPTIMIZATION USING BADGER'S RULE FORCE CONSTANT GUESS

          PARAMETERS CONTROLLING GEOMETRY SEARCH ARE
          METHOD =QA                  UPHESS =BFGS    
          NNEG   =         0          NFRZ   =         0
          NSTEP  =       100          IFOLOW =         1
          HESS   =GUESS               RESTAR =         F
          IHREP  =         0          HSSEND =         F
          NPRT   =         0          NPUN   =         0
          OPTTOL = 1.000E-03          RMIN   = 1.500E-03
          RMAX   = 1.000E-01          RLIM   = 7.000E-02
          DXMAX  = 3.000E-01          PURIFY =         F
          MOVIE  =         F          TRUPD  =         T
          TRMAX  = 5.000E-01          TRMIN  = 5.000E-02
          ITBMAT =         5          STPT   =         F
          STSTEP = 1.000E-02          PROJCT=          T

 BEGINNING GEOMETRY SEARCH POINT NSERCH=   0 ...

 COORDINATES OF ALL ATOMS ARE (ANGS)
   ATOM   CHARGE       X              Y              Z
 ------------------------------------------------------------
 C           6.0   2.5945000000   1.0721000000  -0.3356000000
 C           6.0   1.4067000000   1.7352000000  -0.5532000000
 C           6.0  -0.6904000000   1.1645000000  -1.6233000000
 C           6.0   0.7018000000   1.1559000000  -1.6283000000
 C           6.0   2.5857000000  -0.0090000000  -1.1847000000
 C           6.0   1.4218000000  -0.0166000000  -1.9089000000
 C           6.0   2.5968000000  -1.0972000000  -0.3466000000
 C           6.0  -0.7000000000  -1.1599000000  -1.6277000000
 C           6.0   0.6953000000  -1.1838000000  -1.6305000000
 C           6.0   1.4098000000  -1.7665000000  -0.5698000000
 C           6.0  -1.4439000000   0.0077000000  -1.8821000000
 C           6.0   2.6271000000  -0.6677000000   0.9534000000
 C           6.0  -0.6913000000  -1.8938000000   0.6028000000
 C           6.0   0.6989000000  -1.8933000000   0.6255000000
 C           6.0   1.4277000000  -1.0791000000   1.5090000000
 C           6.0  -1.4369000000  -1.7600000000  -0.5813000000
 C           6.0   2.6304000000   0.7016000000   0.9829000000
 C           6.0  -0.6768000000  -0.0029000000   1.9838000000
 C           6.0   0.7162000000   0.0244000000   2.0013000000
 C           6.0   1.4468000000   1.1409000000   1.5447000000
 C           6.0  -1.4239000000  -1.0921000000   1.4958000000
 C           6.0  -0.6814000000   1.9156000000   0.6185000000
 C           6.0   0.7050000000   1.9308000000   0.6449000000
 C           6.0  -1.4101000000   1.7560000000  -0.5705000000
 C           6.0  -1.4144000000   1.0944000000   1.5008000000
 C           6.0  -2.5929000000   1.0929000000  -0.3472000000
 C           6.0  -2.6024000000   0.6632000000   0.9512000000
 C           6.0  -2.6252000000  -0.7067000000   0.9343000000
 C           6.0  -2.6447000000  -1.1150000000  -0.3798000000
 C           6.0  -2.6328000000  -0.0096000000  -1.1798000000

          ********************
          1 ELECTRON INTEGRALS
          ********************

          **************************
          1 AND 2 ELECTRON INTEGRALS
          **************************

 MOPAC ONE- AND TWO-ELECTRON INTEGRALS REQUIRE     58020 WORDS.
 ...... END OF ONE- AND TWO-ELECTRON INTEGRALS......
 CPU     0: STEP CPU TIME=     0.02 TOTAL CPU TIME=          0.1 (      0.0 MIN)
 TOTAL WALL CLOCK TIME=          0.1 SECONDS, CPU UTILIZATION IS    75.12%
 ...... END OF ONE-ELECTRON INTEGRALS ......
 CPU     0: STEP CPU TIME=     0.00 TOTAL CPU TIME=          0.1 (      0.0 MIN)
 TOTAL WALL CLOCK TIME=          0.1 SECONDS, CPU UTILIZATION IS    74.40%

          -------------
          GUESS OPTIONS
          -------------
          GUESS =HUCKEL            NORB  =       0          NORDER=       0
          MIX   =       F          PRTMO =       F          PUNMO =       F
          TOLZ  = 1.0E-08          TOLE  = 1.0E-05
          SYMDEN=       F          PURIFY=       F

 INITIAL GUESS ORBITALS GENERATED BY HUCKEL   ROUTINE.

 SYMMETRIES FOR INITIAL GUESS ORBITALS FOLLOW.   BOTH SET(S).
    60 ORBITALS ARE OCCUPIED (    0 CORE ORBITALS).
     1=A        2=A        3=A        4=A        5=A        6=A        7=A   
     8=A        9=A       10=A       11=A       12=A       13=A       14=A   
    15=A       16=A       17=A       18=A       19=A       20=A       21=A   
    22=A       23=A       24=A       25=A       26=A       27=A       28=A   
    29=A       30=A       31=A       32=A       33=A       34=A       35=A   
    36=A       37=A       38=A       39=A       40=A       41=A       42=A   
    43=A       44=A       45=A       46=A       47=A       48=A       49=A   
    50=A       51=A       52=A       53=A       54=A       55=A       56=A   
    57=A       58=A       59=A       60=A       61=A       62=A       63=A   
    64=A       65=A       66=A       67=A       68=A       69=A       70=A   
 ...... END OF INITIAL ORBITAL SELECTION ......
 CPU     0: STEP CPU TIME=     0.02 TOTAL CPU TIME=          0.1 (      0.0 MIN)
 TOTAL WALL CLOCK TIME=          0.1 SECONDS, CPU UTILIZATION IS    77.48%

          --------------------------
               R-PM3 SCF CALCULATION
          --------------------------

     NUCLEAR ENERGY =      1127.1761031050
     MAXIT =  200     NPUNCH=    2
     EXTRAP=T  DAMP=F  SHIFT=F  RSTRCT=F  DIIS=F  DEM=F  SOSCF=T
     DENSITY MATRIX CONV=  2.00E-05
     SOSCF WILL OPTIMIZE    3600 ORBITAL ROTATIONS, SOGTOL=   0.250
     MEMORY REQUIRED FOR RHF ITERS=    160860 WORDS.

                                                                                   NONZERO     BLOCKS
 ITER EX DEM     TOTAL ENERGY        E CHANGE  DENSITY CHANGE     ORB. GRAD      INTEGRALS    SKIPPED
   1  0  0     -128.0855368876  -128.0855368876   0.171318132   0.000000000              0          0
          ---------------START SECOND ORDER SCF---------------
   2  1  0     -129.0255159057    -0.9399790181   0.051387286   0.027540057              0          0
   3  2  0     -129.0967555618    -0.0712396560   0.022631394   0.007986372              0          0
   4  3  0     -129.1045011728    -0.0077456110   0.006337125   0.001794197              0          0
   5  4  0     -129.1046852514    -0.0001840786   0.006958909   0.002279550              0          0
   6  5  0     -129.1049811158    -0.0002958644   0.021655993   0.001639905              0          0
   7  6  0     -129.1056155991    -0.0006344833   0.033685603   0.002144318              0          0
   8  7  0     -129.1062972957    -0.0006816967   0.018794997   0.003834500              0          0
   9  8  0     -129.1070353020    -0.0007380063   0.023917615   0.003322674              0          0
  10  9  0     -129.1080715431    -0.0010362411   0.003116531   0.001298715              0          0
  11 10  0     -129.1082204132    -0.0001488701   0.008062672   0.000843268              0          0
  12 11  0     -129.1083893175    -0.0001689043   0.010579787   0.000832868              0          0
  13 12  0     -129.1085319108    -0.0001425933   0.017139001   0.001105229              0          0
  14 13  0     -129.1087112686    -0.0001793578   0.011530108   0.001166269              0          0
  15 14  0     -129.1088501226    -0.0001388540   0.011180913   0.000858904              0          0
  16 15  0     -129.1089946416    -0.0001445190   0.007354318   0.000903818              0          0
  17 16  0     -129.1090897015    -0.0000950599   0.011061492   0.000983775              0          0
  18 17  0     -129.1091903768    -0.0001006752   0.014561225   0.000792047              0          0
  19 18  0     -129.1093059117    -0.0001155349   0.015764869   0.000651736              0          0
  20 19  0     -129.1094351735    -0.0001292618   0.016961542   0.000908589              0          0
  21 20  0     -129.1095844186    -0.0001492451   0.016176534   0.000941472              0          0
  22 21  0     -129.1097421042    -0.0001576856   0.012695586   0.000754317              0          0
  23 22  0     -129.1098806590    -0.0001385548   0.010360315   0.000681079              0          0
  24 23  0     -129.1099723394    -0.0000916804   0.008242749   0.000575589              0          0
  25 24  0     -129.1100310430    -0.0000587036   0.005924167   0.000349589              0          0
  26 25  0     -129.1100635404    -0.0000324974   0.004446572   0.000317846              0          0
  27 26  0     -129.1100809282    -0.0000173878   0.004173755   0.000326058              0          0
  28 27  0     -129.1100886992    -0.0000077710   0.002395116   0.000234686              0          0
  29 28  0     -129.1100981653    -0.0000094661   0.001573772   0.000196251              0          0
  30 29  0     -129.1101044514    -0.0000062861   0.002180323   0.000130831              0          0
  31 30  0     -129.1101084000    -0.0000039486   0.001695616   0.000073176              0          0
  32 31  0     -129.1101102566    -0.0000018566   0.000832086   0.000055379              0          0
  33 32  0     -129.1101110892    -0.0000008327   0.000330681   0.000035066              0          0
  34 33  0     -129.1101114115    -0.0000003223   0.000327316   0.000028838              0          0
  35 34  0     -129.1101115852    -0.0000001737   0.000254745   0.000021416              0          0
  36 35  0     -129.1101116935    -0.0000001083   0.000212089   0.000015073              0          0
  37 36  0     -129.1101117592    -0.0000000658   0.000165853   0.000010408              0          0
  38 37  0     -129.1101117922    -0.0000000330   0.000082779   0.000008548              0          0
  39 38  0     -129.1101118069    -0.0000000147   0.000040195   0.000006536              0          0
  40 39  0     -129.1101118129    -0.0000000060   0.000026568   0.000003150              0          0
  41 40  0     -129.1101118151    -0.0000000023   0.000015036   0.000001392              0          0

          -----------------
          DENSITY CONVERGED
          -----------------
     TIME TO FORM FOCK OPERATORS=       0.0 SECONDS (       0.0 SEC/ITER)
     FOCK TIME ON FIRST ITERATION=       0.0, LAST ITERATION=       0.0
     TIME TO SOLVE SCF EQUATIONS=       0.2 SECONDS (       0.0 SEC/ITER)

 FINAL R-PM3 ENERGY IS     -129.1101118151 AFTER  41 ITERATIONS

 HEAT OF FORMATION IS      1058.69485 KCAL/MOL
 

          ------------
          EIGENVECTORS
          ------------

                      1          2          3          4          5
                   -1.9772    -1.8096    -1.5816    -1.5778    -1.3811
                     A          A          A          A          A   
    1  C  1  S    0.183667   0.238253  -0.033556  -0.138354   0.131177
    2  C  1  X   -0.046935  -0.047985   0.015112   0.058142   0.003797
    3  C  1  Y   -0.038005  -0.056808   0.014734  -0.025135  -0.021651
    4  C  1  Z    0.012486   0.018908   0.065600  -0.011366   0.101546
    5  C  2  S    0.177384   0.157543  -0.064825  -0.252764  -0.019599
    6  C  2  X   -0.005726   0.031513   0.008937   0.033757   0.056285
    7  C  2  Y   -0.048385  -0.053303   0.034088   0.033080   0.008053
    8  C  2  Z    0.015715   0.017400   0.068892  -0.033287   0.069926
    9  C  3  S    0.168580  -0.082777  -0.229865  -0.185307  -0.025800
   10  C  3  X   -0.003206   0.053457  -0.009359  -0.006388  -0.083308
   11  C  3  Y   -0.026774   0.017607   0.059152  -0.022410  -0.025645
   12  C  3  Z    0.036324  -0.024362  -0.008172  -0.058309  -0.010673
   13  C  4  S    0.167547   0.082969  -0.231977  -0.179186  -0.173592
   14  C  4  X    0.002271   0.052566   0.008945   0.009826  -0.012070
   15  C  4  Y   -0.027121  -0.018669   0.060707  -0.022945   0.040936
   16  C  4  Z    0.035853   0.024053  -0.008215  -0.056586  -0.011383
   17  C  5  S    0.181161   0.233619  -0.153175  -0.004240  -0.068174
   18  C  5  X   -0.047226  -0.047946   0.064463   0.002107   0.071955
   19  C  5  Y   -0.000213  -0.000324   0.003847  -0.062869   0.029187
   20  C  5  Z    0.041427   0.061860   0.017765   0.001690   0.069813
   21  C  6  S    0.172375   0.153128  -0.266166  -0.010378  -0.238981
   22  C  6  X   -0.007702   0.027494   0.035739   0.002488   0.024552
   23  C  6  Y    0.000358   0.000234   0.002618  -0.069661   0.020720
   24  C  6  Z    0.053189   0.057502  -0.052777  -0.001321  -0.044699
   25  C  7  S    0.182186   0.236128  -0.053235   0.136891  -0.000481
   26  C  7  X   -0.047168  -0.048333   0.022748  -0.057331   0.049143
   27  C  7  Y    0.038954   0.058118  -0.012522  -0.023666   0.041367
   28  C  7  Z    0.012121   0.018287   0.061490   0.016229   0.083744
   29  C  8  S    0.166941  -0.082282  -0.241729   0.152138   0.036001
   30  C  8  X   -0.003218   0.053496  -0.010248   0.006073  -0.118783
   31  C  8  Y    0.026372  -0.017723  -0.055996  -0.030245   0.019883
   32  C  8  Z    0.035930  -0.024092  -0.013266   0.055541   0.012809
   33  C  9  S    0.165942   0.082822  -0.244827   0.155196  -0.221426
   34  C  9  X    0.003156   0.052161   0.007002  -0.005201  -0.047852
   35  C  9  Y    0.027293   0.018165  -0.058457  -0.027267  -0.036140
   36  C  9  Z    0.035921   0.024047  -0.014243   0.056409  -0.033105
   37  C 10  S    0.175695   0.156428  -0.094615   0.245177  -0.168733
   38  C 10  X   -0.006785   0.029502   0.011540  -0.033241   0.034570
   39  C 10  Y    0.049343   0.053792  -0.037847   0.033446  -0.037334
   40  C 10  Z    0.016361   0.017776   0.061060   0.040302   0.040216
   41  C 11  S    0.174645  -0.156747  -0.258639  -0.017862   0.182242
   42  C 11  X    0.007569   0.028225  -0.037229  -0.003209  -0.078010
   43  C 11  Y    0.000088   0.000141   0.002672  -0.071597  -0.025616
   44  C 11  Z    0.052673  -0.057574  -0.047668  -0.003677   0.062373
   45  C 12  S    0.179684   0.234391   0.114893   0.087663   0.221391
   46  C 12  X   -0.048106  -0.050552  -0.048022  -0.038255  -0.031456
   47  C 12  Y    0.023445   0.035115   0.024853  -0.047837   0.081337
   48  C 12  Z   -0.032718  -0.048661   0.034047  -0.020198   0.006294
   49  C 13  S    0.169088  -0.082420   0.076783   0.285857  -0.096441
   50  C 13  X   -0.003122   0.054161   0.002128   0.010835  -0.041281
   51  C 13  Y    0.043143  -0.028561   0.032997   0.044267  -0.021178
   52  C 13  Z   -0.013099   0.008761   0.057592  -0.030330  -0.028092
   53  C 14  S    0.168246   0.084278   0.076307   0.283802  -0.109486
   54  C 14  X    0.002735   0.053080  -0.003853  -0.011686   0.032874
   55  C 14  Y    0.042942   0.028957   0.032939   0.043523  -0.006270
   56  C 14  Z   -0.014407  -0.009709   0.056868  -0.033630   0.032761
   57  C 15  S    0.176247   0.159270   0.203379   0.162743   0.087456
   58  C 15  X   -0.006617   0.029784  -0.026944  -0.022793   0.071591
   59  C 15  Y    0.030357   0.033755   0.058723  -0.030973   0.068730
   60  C 15  Z   -0.042311  -0.046628  -0.002220  -0.057810   0.000233
   61  C 16  S    0.175773  -0.157819  -0.089286   0.242131   0.112825
   62  C 16  X    0.006557   0.029877  -0.012380   0.032923  -0.072423
   63  C 16  Y    0.049213  -0.053954  -0.035919   0.032030   0.059050
   64  C 16  Z    0.016560  -0.017912   0.059761   0.040572  -0.037902
   65  C 17  S    0.176608   0.230041   0.127430  -0.081157   0.298638
   66  C 17  X   -0.047618  -0.050024  -0.052687   0.034844  -0.060307
   67  C 17  Y   -0.024250  -0.036282  -0.018865  -0.046258  -0.038616
   68  C 17  Z   -0.033667  -0.050053   0.028152   0.023046  -0.020973
   69  C 18  S    0.168454  -0.080335   0.288926   0.015178  -0.227815
   70  C 18  X   -0.003357   0.054251   0.010518  -0.000339   0.046686
   71  C 18  Y    0.000004   0.000186   0.003699  -0.069191  -0.010407
   72  C 18  Z   -0.044671   0.029480  -0.051702  -0.002908   0.047775
   73  C 19  S    0.167064   0.086252   0.288458   0.008808   0.025026
   74  C 19  X    0.003050   0.052671  -0.010459  -0.001668   0.116187
   75  C 19  Y   -0.000609  -0.000044   0.002305  -0.068797   0.012555
   76  C 19  Z   -0.044734  -0.030486  -0.052675  -0.001251  -0.019425
   77  C 20  S    0.169894   0.153797   0.216978  -0.146273   0.179584
   78  C 20  X   -0.007680   0.026663  -0.029126   0.020542   0.077175
   79  C 20  Y   -0.031239  -0.034395  -0.055421  -0.029567  -0.050911
   80  C 20  Z   -0.042063  -0.045726  -0.012606   0.057050  -0.041310
   81  C 21  S    0.177235  -0.157964   0.203462   0.168677  -0.157632
   82  C 21  X    0.006737   0.030057   0.027212   0.022419  -0.039582
   83  C 21  Y    0.030512  -0.033342   0.057500  -0.029556  -0.056571
   84  C 21  Z   -0.042651   0.046669  -0.003259  -0.058466  -0.018060
   85  C 22  S    0.165867  -0.079371   0.103863  -0.274778  -0.185033
   86  C 22  X   -0.002697   0.052432   0.004717  -0.011254   0.020208
   87  C 22  Y   -0.042961   0.028230  -0.036771   0.041604   0.043050
   88  C 22  Z   -0.013850   0.009580   0.052235   0.038091  -0.010015
   89  C 23  S    0.163680   0.081721   0.108415  -0.271208  -0.014638
   90  C 23  X    0.002269   0.051037  -0.002704   0.012005   0.089581
   91  C 23  Y   -0.043180  -0.028969  -0.038037   0.042867  -0.015442
   92  C 23  Z   -0.013794  -0.008542   0.050726   0.037589   0.019224
   93  C 24  S    0.177206  -0.156850  -0.067337  -0.257143  -0.048333
   94  C 24  X    0.006471   0.030062  -0.009239  -0.034538  -0.051562
   95  C 24  Y   -0.049601   0.053981   0.033585   0.037063  -0.027676
   96  C 24  Z    0.015833  -0.017075   0.065430  -0.032290  -0.063846
   97  C 25  S    0.175215  -0.154334   0.216558  -0.143867  -0.249686
   98  C 25  X    0.006909   0.029524   0.029618  -0.020430  -0.025532
   99  C 25  Y   -0.030856   0.033549  -0.055343  -0.035516   0.039664
  100  C 25  Z   -0.042033   0.045546  -0.008413   0.057289   0.024454
  101  C 26  S    0.183495  -0.236387  -0.035516  -0.141989   0.101071
  102  C 26  X    0.047356  -0.048070  -0.014716  -0.060834  -0.013904
  103  C 26  Y   -0.038913   0.057881   0.013616  -0.023826  -0.077240
  104  C 26  Z    0.012196  -0.018011   0.062220  -0.009943  -0.068888
  105  C 27  S    0.181378  -0.233639   0.123621  -0.075960  -0.072731
  106  C 27  X    0.047485  -0.048460   0.051571  -0.033316  -0.073516
  107  C 27  Y   -0.023559   0.035036  -0.019237  -0.051475  -0.024336
  108  C 27  Z   -0.034034   0.050449   0.030663   0.023884  -0.068697
  109  C 28  S    0.179813  -0.232705   0.112233   0.096652   0.012967
  110  C 28  X    0.048345  -0.050251   0.048314   0.040415  -0.043781
  111  C 28  Y    0.024393  -0.036015   0.024119  -0.044871  -0.020822
  112  C 28  Z   -0.032647   0.048505   0.033722  -0.020667  -0.092863
  113  C 29  S    0.178558  -0.232284  -0.050366   0.134991   0.239781
  114  C 29  X    0.048196  -0.050727  -0.021406   0.056666   0.040158
  115  C 29  Y    0.039029  -0.057873  -0.013188  -0.020990   0.060485
  116  C 29  Z    0.012576  -0.018514   0.056748   0.017681  -0.050739
  117  C 30  S    0.179582  -0.232953  -0.143164  -0.005708   0.297021
  118  C 30  X    0.048183  -0.050282  -0.061027  -0.003841   0.059974
  119  C 30  Y   -0.000614   0.001159   0.002839  -0.062726  -0.032956
  120  C 30  Z    0.040885  -0.060710   0.017217   0.002485   0.034910

                      6          7          8          9         10
                   -1.3757    -1.3719    -1.1818    -1.1784    -1.1120
                     A          A          A          A          A   
    1  C  1  S    0.252829  -0.124293  -0.047197  -0.067319  -0.161707
    2  C  1  X   -0.026868   0.078142   0.023354   0.028850  -0.082264
    3  C  1  Y   -0.068140  -0.067096  -0.038930  -0.008197   0.124284
    4  C  1  Z   -0.038155  -0.003596  -0.050671   0.051709  -0.051009
    5  C  2  S    0.079784  -0.266771  -0.135702  -0.173467   0.160622
    6  C  2  X    0.086122   0.003672   0.026765   0.032865  -0.049321
    7  C  2  Y   -0.054785   0.039566  -0.036215   0.032577  -0.010302
    8  C  2  Z   -0.029611  -0.033390  -0.116914   0.087544  -0.002011
    9  C  3  S   -0.239399   0.025900   0.178493  -0.260543  -0.126291
   10  C  3  X    0.026299  -0.088472   0.015885  -0.022646   0.072862
   11  C  3  Y    0.033376   0.012574  -0.089917  -0.054701   0.026410
   12  C  3  Z   -0.033482   0.030127  -0.056726  -0.055222  -0.024146
   13  C  4  S   -0.016001  -0.167011   0.179643  -0.251110   0.141619
   14  C  4  X    0.117447  -0.035454  -0.016729   0.026907   0.072254
   15  C  4  Y   -0.013530   0.000987  -0.089882  -0.057514  -0.018548
   16  C  4  Z    0.007448  -0.042960  -0.056581  -0.054940   0.029613
   17  C  5  S    0.297075   0.062096   0.064224   0.020434  -0.133172
   18  C  5  X   -0.042963   0.011872  -0.036217  -0.015987  -0.086303
   19  C  5  Y    0.026915  -0.093744   0.024051  -0.080250   0.000670
   20  C  5  Z    0.054299   0.040518  -0.034193  -0.017025  -0.136318
   21  C  6  S    0.130690  -0.045264   0.204275   0.077020   0.160656
   22  C  6  X    0.088250   0.034562  -0.045013  -0.014385  -0.034255
   23  C  6  Y    0.021988  -0.071241   0.045884  -0.144556   0.007854
   24  C  6  Z    0.056769   0.001583   0.008873   0.004982   0.019631
   25  C  7  S    0.136386   0.277496  -0.070339   0.021114  -0.144625
   26  C  7  X    0.014015  -0.064022   0.036468  -0.016434  -0.083449
   27  C  7  Y    0.089349   0.002534   0.037838   0.005825  -0.127158
   28  C  7  Z   -0.049206   0.040841  -0.010876  -0.079524  -0.039371
   29  C  8  S   -0.190423  -0.147946   0.006921   0.301811  -0.158716
   30  C  8  X   -0.006441   0.024575   0.000295   0.029358   0.061594
   31  C  8  Y   -0.037381   0.006128   0.104435   0.002361  -0.021750
   32  C  8  Z   -0.014789  -0.041158  -0.075275   0.012139  -0.029178
   33  C  9  S   -0.069420   0.004483   0.001929   0.317777   0.104621
   34  C  9  X    0.083860   0.073238  -0.000752  -0.020241   0.080151
   35  C  9  Y    0.017499  -0.017948   0.103674   0.008918   0.022286
   36  C  9  Z   -0.015369   0.026853  -0.077550   0.014779   0.026110
   37  C 10  S   -0.061269   0.206815  -0.209939   0.082620   0.153910
   38  C 10  X    0.068560   0.067130   0.043995  -0.014965  -0.036548
   39  C 10  Y    0.026761   0.049450   0.008493   0.047045   0.012454
   40  C 10  Z   -0.052813   0.049814  -0.048731  -0.136615   0.013628
   41  C 11  S   -0.215977  -0.002543   0.202824   0.057196  -0.159148
   42  C 11  X   -0.048616  -0.039528   0.046410   0.008906  -0.058202
   43  C 11  Y   -0.021204   0.074408   0.043065  -0.140825   0.004474
   44  C 11  Z   -0.029748   0.012767   0.006048   0.001287  -0.011593
   45  C 12  S   -0.003316   0.217305   0.047569  -0.065801  -0.156805
   46  C 12  X    0.062185  -0.047255  -0.024547   0.028834  -0.079277
   47  C 12  Y    0.036704  -0.048722   0.039535   0.047127  -0.085150
   48  C 12  Z   -0.075999  -0.059791   0.054771   0.009045   0.104984
   49  C 13  S   -0.065695  -0.215199  -0.187366  -0.246516  -0.129693
   50  C 13  X   -0.094730   0.072342  -0.017536  -0.017699   0.074603
   51  C 13  Y    0.006567  -0.043713   0.023715  -0.035154  -0.032700
   52  C 13  Z    0.018736   0.021804   0.100674  -0.074006   0.015684
   53  C 14  S   -0.209180   0.081781  -0.185758  -0.237525   0.143204
   54  C 14  X    0.001025   0.119976   0.016470   0.024283   0.074026
   55  C 14  Y   -0.041098   0.027124   0.025029  -0.032638   0.035554
   56  C 14  Z   -0.005756  -0.016926   0.105294  -0.070457  -0.004299
   57  C 15  S   -0.223247   0.145050   0.133051  -0.167898   0.168520
   58  C 15  X    0.047350   0.057941  -0.025608   0.033303  -0.052986
   59  C 15  Y   -0.025383  -0.020788   0.103381   0.066975   0.002742
   60  C 15  Z    0.016486  -0.073386   0.069818   0.054134  -0.010483
   61  C 16  S   -0.030255  -0.253254  -0.201840   0.067003  -0.157592
   62  C 16  X   -0.072817  -0.008184  -0.043392   0.013518  -0.059358
   63  C 16  Y   -0.001722  -0.035525   0.010353   0.044066  -0.010578
   64  C 16  Z    0.057804  -0.043115  -0.047555  -0.132657  -0.000268
   65  C 17  S    0.062901  -0.034784   0.005732   0.060646  -0.167562
   66  C 17  X    0.035132   0.045462  -0.002535  -0.039348  -0.072570
   67  C 17  Y    0.002442  -0.091275  -0.063545   0.023806   0.077101
   68  C 17  Z   -0.093731   0.008805   0.048790   0.030241   0.109673
   69  C 18  S   -0.029822  -0.078807   0.296713   0.091246  -0.126419
   70  C 18  X   -0.113324  -0.017106   0.025036   0.011732   0.084420
   71  C 18  Y   -0.008619   0.033812  -0.037222   0.125352  -0.001943
   72  C 18  Z   -0.009790   0.011120  -0.011927  -0.002451   0.036191
   73  C 19  S   -0.230156  -0.058448   0.297088   0.103885   0.145639
   74  C 19  X   -0.017027   0.030255  -0.024067  -0.008056   0.063551
   75  C 19  Y    0.012847  -0.037810  -0.043540   0.122793  -0.004025
   76  C 19  Z    0.043586   0.006945  -0.013409  -0.005335  -0.034116
   77  C 20  S   -0.131813  -0.158001   0.004111   0.218300   0.147419
   78  C 20  X    0.054817   0.020722   0.001258  -0.050504  -0.054577
   79  C 20  Y    0.042856  -0.033388  -0.119273  -0.006320  -0.008482
   80  C 20  Z   -0.017879   0.058932   0.085754  -0.006343  -0.008301
   81  C 21  S    0.138551  -0.184552   0.124790  -0.181768  -0.157424
   82  C 21  X   -0.095349  -0.015680   0.025801  -0.036911  -0.042688
   83  C 21  Y    0.045573   0.030133   0.100848   0.067396  -0.010889
   84  C 21  Z   -0.038164   0.060030   0.069397   0.054907   0.009262
   85  C 22  S   -0.134397   0.066449  -0.291705   0.096929  -0.119886
   86  C 22  X   -0.039152  -0.115989  -0.027802   0.010247   0.078320
   87  C 22  Y    0.011180  -0.023635   0.000601  -0.040408   0.035417
   88  C 22  Z    0.029246  -0.021764   0.044901   0.115304   0.008759
   89  C 23  S   -0.116782  -0.209317  -0.292522   0.104889   0.137034
   90  C 23  X    0.049384  -0.063004   0.026487  -0.008567   0.061243
   91  C 23  Y    0.021929   0.042785   0.003018  -0.041513  -0.033353
   92  C 23  Z   -0.018253   0.025894   0.048665   0.112983  -0.011685
   93  C 24  S   -0.161685   0.223149  -0.130809  -0.176699  -0.149354
   94  C 24  X   -0.053073  -0.070502  -0.027608  -0.039609  -0.040411
   95  C 24  Y    0.027767  -0.056875  -0.034568   0.032063   0.012382
   96  C 24  Z    0.038263   0.037975  -0.114640   0.087270  -0.006716
   97  C 25  S    0.055865   0.110706   0.007283   0.211640  -0.166358
   98  C 25  X   -0.081344  -0.054934   0.000291   0.046147  -0.037181
   99  C 25  Y   -0.059738   0.028002  -0.121711  -0.001387   0.013513
  100  C 25  Z   -0.002107  -0.069746   0.086452  -0.004744   0.012671
  101  C 26  S    0.050153   0.290323  -0.044704  -0.048002   0.151770
  102  C 26  X   -0.045410   0.069928  -0.023323  -0.031109  -0.082878
  103  C 26  Y   -0.059165  -0.004244  -0.037796  -0.016063  -0.127652
  104  C 26  Z    0.078727   0.026573  -0.051128   0.054390   0.032294
  105  C 27  S    0.236606   0.190987   0.006452   0.072865   0.133204
  106  C 27  X    0.021318   0.036190   0.003477   0.034857  -0.085540
  107  C 27  Y   -0.082711   0.054564  -0.062397   0.022504  -0.074637
  108  C 27  Z   -0.014998  -0.069091   0.047453   0.021331  -0.110822
  109  C 28  S    0.302758  -0.061374   0.040218  -0.059119   0.146146
  110  C 28  X    0.049036  -0.054342   0.022259  -0.035093  -0.080246
  111  C 28  Y    0.046415   0.087163   0.041158   0.051573   0.071536
  112  C 28  Z   -0.030709   0.003635   0.053746   0.000086  -0.110477
  113  C 29  S    0.158990  -0.115624  -0.067933   0.029917   0.169782
  114  C 29  X   -0.002886  -0.073576  -0.034702   0.010479  -0.073896
  115  C 29  Y    0.040907   0.062898   0.035489   0.016109   0.126603
  116  C 29  Z    0.086472  -0.017282  -0.013523  -0.072439   0.037170
  117  C 30  S    0.002896   0.092315   0.062185   0.031172   0.167885
  118  C 30  X   -0.060297   0.002182   0.034691   0.009677  -0.075966
  119  C 30  Y   -0.027017   0.093980   0.023662  -0.073087  -0.003753
  120  C 30  Z    0.082996   0.033238  -0.032028  -0.006239   0.133921

                     11         12         13         14         15
                   -1.0705    -1.0666    -1.0238    -1.0217    -0.8840
                     A          A          A          A          A   
    1  C  1  S    0.010087   0.272744   0.086900   0.099690  -0.056352
    2  C  1  X   -0.006359  -0.050744  -0.041553  -0.045004  -0.136576
    3  C  1  Y    0.050564   0.015662   0.072231   0.014667   0.149936
    4  C  1  Z    0.136214  -0.013349   0.080760  -0.102207  -0.058757
    5  C  2  S    0.002221   0.049947   0.169492   0.177707   0.117631
    6  C  2  X    0.012383   0.175302   0.012639   0.018923   0.096816
    7  C  2  Y    0.003603  -0.055111   0.028076  -0.057294  -0.025442
    8  C  2  Z    0.023818   0.017408   0.129737  -0.116242   0.033878
    9  C  3  S    0.099886  -0.165492   0.094844  -0.169246  -0.122166
   10  C  3  X    0.078872  -0.132067  -0.058016   0.119313  -0.167089
   11  C  3  Y   -0.032096  -0.022109  -0.067636  -0.022069  -0.027886
   12  C  3  Z   -0.026087  -0.012864  -0.035274  -0.044829   0.013011
   13  C  4  S    0.100425  -0.163587  -0.085756   0.172122  -0.119757
   14  C  4  X   -0.081377   0.131160  -0.062720   0.107373   0.168454
   15  C  4  Y   -0.035034  -0.022553   0.065258   0.015821  -0.024448
   16  C  4  Z   -0.027120  -0.010959   0.032796   0.041763   0.015476
   17  C  5  S   -0.270088   0.103794  -0.125098  -0.039878  -0.024959
   18  C  5  X    0.037798  -0.018921   0.058060   0.014159  -0.137831
   19  C  5  Y    0.041048   0.115874  -0.027394   0.150986   0.002713
   20  C  5  Z   -0.009820  -0.005010   0.060006   0.013230  -0.163529
   21  C  6  S   -0.025219   0.018630  -0.232618  -0.048560   0.131078
   22  C  6  X   -0.161428   0.064849  -0.018486  -0.014456   0.102165
   23  C  6  Y   -0.005807   0.014200  -0.034277   0.178840  -0.009651
   24  C  6  Z   -0.051143   0.022024  -0.026899  -0.008235   0.038435
   25  C  7  S   -0.186843  -0.210032   0.116264  -0.071960  -0.052820
   26  C  7  X    0.025522   0.033948  -0.054965   0.029445  -0.124032
   27  C  7  Y   -0.036739   0.032892  -0.070548  -0.011589  -0.139986
   28  C  7  Z    0.089160  -0.083842   0.038714   0.139281  -0.036556
   29  C  8  S    0.178661   0.033816   0.025684   0.203921  -0.037742
   30  C  8  X    0.156255   0.033249  -0.017703  -0.115540  -0.139749
   31  C  8  Y    0.005211  -0.037125   0.071595   0.003296   0.035170
   32  C  8  Z   -0.008749   0.025970  -0.046966   0.027584  -0.002366
   33  C  9  S    0.212950   0.042550  -0.023479  -0.172474  -0.067469
   34  C  9  X   -0.134268  -0.028995  -0.015541  -0.136731   0.124104
   35  C  9  Y    0.011493  -0.036726  -0.065381  -0.006166   0.031630
   36  C  9  Z   -0.003472   0.028195   0.045534  -0.026599  -0.008503
   37  C 10  S   -0.007969  -0.029498   0.220144  -0.110659   0.061880
   38  C 10  X   -0.115222  -0.130772   0.016800  -0.020793   0.107271
   39  C 10  Y   -0.034519  -0.034965  -0.002863  -0.062600   0.036121
   40  C 10  Z   -0.008299  -0.023915   0.083411   0.152251   0.014076
   41  C 11  S   -0.057492   0.022165   0.240346   0.037133   0.144716
   42  C 11  X    0.157014  -0.070260  -0.012263   0.004083  -0.084665
   43  C 11  Y    0.013422   0.020976   0.032634  -0.183336  -0.021831
   44  C 11  Z   -0.052578   0.023809   0.022401  -0.000143   0.034418
   45  C 12  S    0.129911  -0.241724  -0.066856   0.115394  -0.034632
   46  C 12  X   -0.027962   0.048105   0.029121  -0.053449  -0.141380
   47  C 12  Y    0.087044   0.065681  -0.083195  -0.077014  -0.109928
   48  C 12  Z    0.074991   0.032999  -0.096324   0.003073   0.130332
   49  C 13  S    0.013839   0.201508  -0.140929  -0.129173  -0.080563
   50  C 13  X    0.011530   0.153484   0.091002   0.095680  -0.152701
   51  C 13  Y   -0.016447   0.001386  -0.000401  -0.034533   0.029650
   52  C 13  Z   -0.046737   0.008377   0.062881  -0.054465   0.024410
   53  C 14  S    0.015149   0.195152   0.130656   0.138231  -0.079815
   54  C 14  X   -0.011221  -0.156856   0.089687   0.085129   0.153465
   55  C 14  Y   -0.016861  -0.002180  -0.000125   0.032913   0.031295
   56  C 14  Z   -0.051819   0.001260  -0.064995   0.044941   0.034387
   57  C 15  S    0.019138  -0.052463  -0.118299   0.207202   0.160389
   58  C 15  X    0.089547  -0.150879  -0.010059   0.018050   0.094845
   59  C 15  Y    0.031483  -0.021153  -0.136734  -0.058600   0.009191
   60  C 15  Z   -0.012607   0.047802  -0.087708  -0.066009  -0.032380
   61  C 16  S   -0.040851  -0.044030  -0.224727   0.107582   0.080466
   62  C 16  X    0.111589   0.130866   0.012719   0.001300  -0.086551
   63  C 16  Y   -0.041296  -0.035649   0.007311   0.057183   0.035978
   64  C 16  Z    0.007346  -0.020627  -0.083970  -0.155210   0.002216
   65  C 17  S    0.269560   0.068114  -0.023770  -0.110191  -0.073154
   66  C 17  X   -0.057551  -0.018007   0.008236   0.057155  -0.122511
   67  C 17  Y   -0.013634   0.102885   0.108221  -0.050576   0.088786
   68  C 17  Z    0.022614  -0.070818  -0.088901  -0.036497   0.123789
   69  C 18  S   -0.198114   0.076990   0.182697   0.032058  -0.112260
   70  C 18  X   -0.131275   0.056975  -0.130010  -0.028972  -0.151198
   71  C 18  Y   -0.021237  -0.047867  -0.012986   0.078819  -0.032736
   72  C 18  Z    0.000972  -0.000502  -0.024860  -0.007278  -0.021615
   73  C 19  S   -0.169595   0.071925  -0.189074  -0.047535  -0.094854
   74  C 19  X    0.147586  -0.058028  -0.120197  -0.022657   0.158914
   75  C 19  Y   -0.008110  -0.041053   0.019880  -0.085164  -0.024880
   76  C 19  Z   -0.003182   0.000082   0.022110   0.005457  -0.023203
   77  C 20  S    0.069706   0.021177  -0.028287  -0.239375   0.092334
   78  C 20  X    0.159427   0.042392  -0.004939  -0.005774   0.082566
   79  C 20  Y   -0.034830   0.004514   0.144465  -0.001680  -0.004549
   80  C 20  Z   -0.042542  -0.024833  -0.101388   0.029063  -0.039290
   81  C 21  S    0.021761  -0.038119   0.114513  -0.212555   0.153177
   82  C 21  X   -0.096993   0.151850  -0.013815   0.017711  -0.098188
   83  C 21  Y    0.025691  -0.021804   0.140285   0.063336   0.011051
   84  C 21  Z   -0.019593   0.044440   0.088349   0.066850  -0.031912
   85  C 22  S   -0.138830  -0.164496  -0.170273   0.074856  -0.048724
   86  C 22  X   -0.089273  -0.111941   0.119674  -0.061029  -0.121503
   87  C 22  Y    0.013638  -0.009196   0.013791  -0.033636  -0.008500
   88  C 22  Z   -0.037317   0.028700   0.043418   0.063929  -0.018281
   89  C 23  S   -0.113101  -0.145937   0.172942  -0.089531  -0.027278
   90  C 23  X    0.104597   0.121494   0.109914  -0.049609   0.131657
   91  C 23  Y    0.006952  -0.011358  -0.014152   0.031655  -0.012525
   92  C 23  Z   -0.028365   0.030366  -0.042321  -0.067490  -0.013499
   93  C 24  S    0.001200   0.042705  -0.176145  -0.177284   0.109293
   94  C 24  X   -0.019109  -0.177498   0.015995   0.010502  -0.102260
   95  C 24  Y   -0.002038  -0.056568  -0.025960   0.055402  -0.028766
   96  C 24  Z    0.013830   0.010643  -0.133505   0.122808   0.031609
   97  C 25  S    0.020819   0.003805   0.033038   0.243157   0.074998
   98  C 25  X   -0.169320  -0.043254  -0.002917  -0.025414  -0.103143
   99  C 25  Y   -0.032737  -0.000061  -0.151108   0.003232  -0.009738
  100  C 25  Z   -0.040007  -0.018967   0.105222  -0.034095  -0.040475
  101  C 26  S    0.042174   0.282245  -0.094963  -0.084252  -0.042594
  102  C 26  X    0.003341   0.048795  -0.046710  -0.041895   0.136122
  103  C 26  Y    0.031708   0.004026  -0.075126  -0.011366   0.150184
  104  C 26  Z    0.128480  -0.016752  -0.083077   0.118575  -0.044360
  105  C 27  S    0.276144   0.062914   0.026947   0.138891  -0.046298
  106  C 27  X    0.040608   0.012310   0.009080   0.061383   0.125796
  107  C 27  Y   -0.025101   0.103781  -0.115155   0.057843   0.080955
  108  C 27  Z    0.008662  -0.075840   0.091521   0.033201   0.119566
  109  C 28  S    0.156663  -0.237084   0.067817  -0.116892  -0.027906
  110  C 28  X    0.026460  -0.045913   0.029047  -0.055433   0.141950
  111  C 28  Y    0.089252   0.058332   0.088895   0.086292  -0.093444
  112  C 28  Z    0.062968   0.033380   0.097322  -0.000138   0.137192
  113  C 29  S   -0.176189  -0.208893  -0.112181   0.046954  -0.081020
  114  C 29  X   -0.040652  -0.041968  -0.055611   0.024033   0.123428
  115  C 29  Y   -0.023152   0.035606   0.070889   0.014053  -0.142618
  116  C 29  Z    0.103820  -0.077766  -0.040091  -0.127063  -0.039409
  117  C 30  S   -0.252083   0.111576   0.123254   0.015133  -0.054328
  118  C 30  X   -0.053644   0.021824   0.057076   0.007376   0.137515
  119  C 30  Y    0.057353   0.123833   0.025759  -0.137231   0.009030
  120  C 30  Z    0.014914  -0.003525  -0.057812  -0.009649  -0.165914

                     16         17         18         19         20
                   -0.8791    -0.8767    -0.8584    -0.8502    -0.8211
                     A          A          A          A          A   
    1  C  1  S    0.004524   0.087027   0.046033  -0.262565  -0.004995
    2  C  1  X   -0.024905  -0.046331   0.003350  -0.029343  -0.003763
    3  C  1  Y    0.020265   0.051408   0.048772   0.036684   0.074508
    4  C  1  Z   -0.019121  -0.019480   0.158210   0.015764   0.200951
    5  C  2  S    0.009897   0.238724  -0.026857   0.141879   0.008353
    6  C  2  X    0.027939  -0.019611   0.031445  -0.166074   0.003250
    7  C  2  Y   -0.053124   0.013974  -0.015983   0.025031   0.040878
    8  C  2  Z   -0.129236  -0.005362  -0.035380  -0.025502   0.124779
    9  C  3  S    0.203852  -0.058248  -0.072036  -0.152860   0.072521
   10  C  3  X    0.048119  -0.027764   0.037242   0.083794   0.186692
   11  C  3  Y    0.073897   0.167040   0.064822   0.016764  -0.030880
   12  C  3  Z    0.023193   0.142145   0.028601  -0.030418  -0.051214
   13  C  4  S    0.185584  -0.082539   0.075514   0.176773   0.075549
   14  C  4  X   -0.054624   0.016919   0.032244   0.069663  -0.184792
   15  C  4  Y    0.075808   0.167585  -0.053540   0.018915  -0.021984
   16  C  4  Z    0.020381   0.140981  -0.022371   0.049807  -0.046683
   17  C  5  S   -0.037876  -0.054487  -0.238528  -0.140301  -0.094933
   18  C  5  X    0.002256   0.037704  -0.037680  -0.014094   0.027547
   19  C  5  Y    0.011677  -0.000093   0.052281  -0.115657  -0.182275
   20  C  5  Z    0.008772   0.050578  -0.060901  -0.018125   0.034264
   21  C  6  S   -0.129638  -0.201817   0.130811   0.045617  -0.007720
   22  C  6  X    0.043017   0.025500  -0.129077  -0.074758  -0.101670
   23  C  6  Y    0.107002  -0.092266  -0.031325   0.040059  -0.096247
   24  C  6  Z    0.016131   0.011772  -0.017008  -0.009973  -0.032552
   25  C  7  S    0.052747   0.008730  -0.200714   0.185027   0.172474
   26  C  7  X   -0.068276  -0.015973  -0.027216   0.018267  -0.049550
   27  C  7  Y   -0.077458  -0.011377  -0.069673  -0.017345  -0.044617
   28  C  7  Z   -0.031487  -0.021741   0.069553   0.115078  -0.077064
   29  C  8  S   -0.143332   0.176640  -0.196336   0.013537  -0.035131
   30  C  8  X   -0.073957   0.069637   0.070247  -0.001319  -0.112872
   31  C  8  Y   -0.121826  -0.123233  -0.028986  -0.071648   0.099366
   32  C  8  Z    0.118429   0.057034  -0.025813   0.057801  -0.056307
   33  C  9  S   -0.148503   0.192181   0.174061  -0.011071  -0.053655
   34  C  9  X    0.067886  -0.062634   0.105966  -0.008257   0.106307
   35  C  9  Y   -0.132618  -0.122733   0.030621   0.027883   0.098239
   36  C  9  Z    0.127160   0.062849   0.023616  -0.026847  -0.062369
   37  C 10  S    0.252296   0.079532   0.106718  -0.067635   0.008338
   38  C 10  X   -0.013588  -0.016982  -0.108942   0.103585   0.185708
   39  C 10  Y   -0.022225   0.036591  -0.004700   0.024967   0.062368
   40  C 10  Z    0.046411  -0.131388  -0.039367  -0.037481  -0.014171
   41  C 11  S   -0.113802  -0.191652  -0.110688  -0.088017  -0.010225
   42  C 11  X   -0.025543  -0.023572  -0.156343  -0.097408   0.113992
   43  C 11  Y    0.103065  -0.072967   0.017583  -0.028532  -0.102199
   44  C 11  Z    0.015203   0.014469   0.022592   0.018118  -0.035080
   45  C 12  S   -0.094676   0.002124   0.101806   0.257097  -0.149188
   46  C 12  X    0.017115  -0.017509   0.009061   0.017158   0.043891
   47  C 12  Y    0.012768  -0.002097   0.120061  -0.038324  -0.035615
   48  C 12  Z   -0.012262   0.021403   0.072427  -0.058546  -0.095535
   49  C 13  S   -0.025904  -0.230400  -0.038798   0.170703  -0.000786
   50  C 13  X   -0.024863  -0.075341   0.023574  -0.101724  -0.023045
   51  C 13  Y   -0.065257   0.029704   0.011927   0.036416   0.048808
   52  C 13  Z   -0.215221  -0.016246   0.070251  -0.018992   0.133078
   53  C 14  S   -0.004731  -0.214003   0.040067  -0.202520  -0.014811
   54  C 14  X    0.038742   0.081830   0.014389  -0.076260   0.014309
   55  C 14  Y   -0.062006   0.036487  -0.011027  -0.039505   0.047927
   56  C 14  Z   -0.216150  -0.005952  -0.057800  -0.021959   0.135974
   57  C 15  S   -0.198945   0.086367  -0.053481  -0.123748  -0.014773
   58  C 15  X    0.038189  -0.024324   0.064521   0.169321  -0.161367
   59  C 15  Y    0.043205   0.102253  -0.027333   0.043775  -0.064860
   60  C 15  Z    0.005779   0.082435  -0.031507  -0.008956   0.007416
   61  C 16  S    0.238596   0.070492  -0.093105   0.107161   0.027446
   62  C 16  X    0.002716   0.006392  -0.134761   0.125227  -0.166714
   63  C 16  Y   -0.020648   0.034221   0.012028  -0.028423   0.056725
   64  C 16  Z    0.036032  -0.121645   0.027727   0.029548  -0.016735
   65  C 17  S    0.030949  -0.060208   0.285080  -0.038083   0.073182
   66  C 17  X   -0.052440   0.033614   0.013940   0.004014  -0.032079
   67  C 17  Y    0.041008  -0.022688  -0.029555  -0.112264   0.167339
   68  C 17  Z    0.049185  -0.039560  -0.027617   0.086318  -0.076232
   69  C 18  S    0.107455   0.176573   0.156300   0.108213   0.047446
   70  C 18  X    0.020401   0.068891  -0.097690  -0.049887   0.115398
   71  C 18  Y    0.185513  -0.130069   0.021593  -0.048705  -0.113263
   72  C 18  Z    0.016033   0.028578  -0.036417  -0.016479   0.010066
   73  C 19  S    0.124726   0.181794  -0.173414  -0.078387   0.039239
   74  C 19  X   -0.016350  -0.064784  -0.060463  -0.039962  -0.117375
   75  C 19  Y    0.179655  -0.149363  -0.036876   0.065893  -0.103021
   76  C 19  Z    0.014915   0.023015   0.027721   0.016942   0.007844
   77  C 20  S    0.165422  -0.202468  -0.121952   0.011790   0.019598
   78  C 20  X   -0.002521   0.028918   0.177630  -0.027031   0.090096
   79  C 20  Y   -0.090354  -0.067683  -0.010650   0.030927   0.072432
   80  C 20  Z    0.065573   0.031212  -0.026932  -0.013066  -0.090057
   81  C 21  S   -0.209676   0.064316   0.063311   0.110257  -0.006351
   82  C 21  X   -0.058928   0.003319   0.074563   0.152461   0.171658
   83  C 21  Y    0.049414   0.101907   0.033437  -0.020383  -0.066021
   84  C 21  Z    0.002896   0.079446   0.040821   0.013561   0.008773
   85  C 22  S   -0.217706  -0.068215   0.126857  -0.142358  -0.093471
   86  C 22  X   -0.107053  -0.026121  -0.078397   0.071501  -0.184141
   87  C 22  Y   -0.054963   0.051253  -0.040496   0.011233  -0.011650
   88  C 22  Z    0.050166  -0.208395   0.017566   0.046712  -0.044741
   89  C 23  S   -0.231675  -0.079141  -0.142844   0.117812  -0.063647
   90  C 23  X    0.099456   0.025268  -0.049782   0.055126   0.199733
   91  C 23  Y   -0.051541   0.048914   0.040397  -0.009177  -0.014515
   92  C 23  Z    0.066674  -0.206004  -0.038232  -0.058052  -0.040399
   93  C 24  S    0.028564   0.242852   0.042054  -0.121486  -0.003718
   94  C 24  X   -0.007371   0.039892   0.039471  -0.157557  -0.018918
   95  C 24  Y   -0.047533   0.016222   0.021839  -0.026962   0.033332
   96  C 24  Z   -0.123874  -0.013196   0.042556  -0.003110   0.121169
   97  C 25  S    0.160552  -0.192043   0.139545  -0.017443   0.004280
   98  C 25  X    0.001565  -0.024138   0.145008  -0.016886  -0.107462
   99  C 25  Y   -0.084262  -0.071663   0.001057  -0.058645   0.060655
  100  C 25  Z    0.063071   0.032873   0.019512   0.035455  -0.085801
  101  C 26  S   -0.027341   0.054636  -0.073285   0.271276   0.022584
  102  C 26  X    0.028726   0.044819   0.010913  -0.028869   0.006989
  103  C 26  Y    0.028528   0.052304  -0.021554  -0.047324   0.072650
  104  C 26  Z   -0.009756  -0.020376  -0.140114  -0.030566   0.212430
  105  C 27  S    0.029638  -0.057930  -0.266765   0.023879   0.092300
  106  C 27  X    0.051866  -0.034100   0.037437   0.001098   0.030671
  107  C 27  Y    0.028314  -0.039281   0.039597   0.107549   0.179313
  108  C 27  Z    0.056581  -0.025754   0.044499  -0.085036  -0.083088
  109  C 28  S   -0.058556   0.033823  -0.120269  -0.256294  -0.161000
  110  C 28  X   -0.018626   0.011284   0.011838   0.022084  -0.044315
  111  C 28  Y    0.006359  -0.001647  -0.112769   0.031159  -0.031013
  112  C 28  Z   -0.022881   0.012899  -0.054466   0.061811  -0.088880
  113  C 29  S    0.071359   0.030611   0.207734  -0.184771   0.144787
  114  C 29  X    0.065093   0.012757  -0.007482   0.016540   0.054488
  115  C 29  Y   -0.077307  -0.013017   0.055478   0.011915  -0.046939
  116  C 29  Z   -0.012307  -0.005816  -0.099641  -0.111580  -0.073770
  117  C 30  S   -0.064107  -0.061748   0.241197   0.141120  -0.106417
  118  C 30  X   -0.000393  -0.034381  -0.013920  -0.012129  -0.031511
  119  C 30  Y   -0.006751  -0.010807  -0.086346   0.133698  -0.164612
  120  C 30  Z    0.004320   0.043109   0.024751   0.022737   0.035950

                     21         22         23         24         25
                   -0.8198    -0.7613    -0.7597    -0.7123    -0.7066
                     A          A          A          A          A   
    1  C  1  S    0.164280  -0.006813  -0.072244  -0.009926   0.151733
    2  C  1  X   -0.049922   0.003783   0.062858  -0.037950   0.115163
    3  C  1  Y    0.061778  -0.037473  -0.065595  -0.021551  -0.100913
    4  C  1  Z   -0.021923  -0.076924   0.033837  -0.162568   0.013088
    5  C  2  S    0.016945  -0.025949  -0.237282   0.036752  -0.192683
    6  C  2  X    0.178241  -0.000948  -0.007427   0.024405   0.019655
    7  C  2  Y   -0.053467  -0.072156  -0.000472  -0.033038   0.006445
    8  C  2  Z    0.016607  -0.204358   0.036081  -0.052277  -0.020558
    9  C  3  S   -0.031810  -0.154196  -0.032175   0.062569   0.099262
   10  C  3  X   -0.075417   0.110050   0.014166   0.076479   0.199337
   11  C  3  Y   -0.106495  -0.028087   0.148783   0.124931   0.002444
   12  C  3  Z   -0.068150  -0.024287   0.111340   0.062752  -0.093649
   13  C  4  S   -0.028917   0.149103   0.024745   0.018777   0.117703
   14  C  4  X    0.071251   0.096593   0.027386  -0.098036  -0.190199
   15  C  4  Y   -0.112586   0.026665  -0.135636   0.119689  -0.013645
   16  C  4  Z   -0.070727   0.026774  -0.107870   0.059392  -0.103433
   17  C  5  S   -0.143327  -0.045353   0.070657   0.121908   0.079903
   18  C  5  X    0.035945   0.033780  -0.045013   0.101472   0.061595
   19  C  5  Y    0.139781   0.074891   0.038817  -0.023017   0.093910
   20  C  5  Z    0.050533   0.054319  -0.073353   0.117030   0.064323
   21  C  6  S   -0.002596  -0.129182   0.216198  -0.163762  -0.088254
   22  C  6  X   -0.151014  -0.018736   0.007593  -0.007441  -0.001192
   23  C  6  Y    0.069914   0.182173   0.108953  -0.058764   0.073194
   24  C  6  Z   -0.042820   0.005585  -0.017482  -0.013960  -0.010725
   25  C  7  S    0.029237   0.073430  -0.016642   0.097733  -0.102688
   26  C  7  X   -0.009604  -0.050556   0.035953   0.082284  -0.075465
   27  C  7  Y   -0.074513  -0.076650   0.012499   0.103542  -0.023008
   28  C  7  Z    0.203751   0.017763   0.091755  -0.026414  -0.123209
   29  C  8  S    0.053645   0.108889   0.119078   0.094795  -0.008596
   30  C  8  X    0.177092  -0.060863  -0.065628   0.226064  -0.010369
   31  C  8  Y    0.042812   0.104414  -0.101314  -0.054814  -0.127821
   32  C  8  Z   -0.058987  -0.077581   0.071796  -0.058423   0.105841
   33  C  9  S    0.085566  -0.087533  -0.105048   0.147323  -0.014996
   34  C  9  X   -0.158044  -0.078614  -0.088723  -0.198186   0.002804
   35  C  9  Y    0.054619  -0.098827   0.093856  -0.046545  -0.110256
   36  C  9  Z   -0.060248   0.072898  -0.082267  -0.051053   0.096736
   37  C 10  S    0.001579   0.219843  -0.116093  -0.141855   0.113151
   38  C 10  X    0.033783   0.006960  -0.000755  -0.002386  -0.012941
   39  C 10  Y   -0.022142  -0.039801  -0.055722   0.008062   0.029186
   40  C 10  Z    0.113752   0.083414   0.190539  -0.062487  -0.032013
   41  C 11  S   -0.024453   0.112736  -0.223043  -0.155120  -0.104398
   42  C 11  X    0.127999  -0.004672   0.001944  -0.019875  -0.029753
   43  C 11  Y    0.090205  -0.192210  -0.107409  -0.018591   0.059568
   44  C 11  Z   -0.037049  -0.011247   0.017090  -0.012839  -0.001864
   45  C 12  S    0.060650  -0.066513  -0.008485  -0.038302  -0.170767
   46  C 12  X   -0.016516   0.057759   0.021709  -0.058395  -0.094072
   47  C 12  Y   -0.168297   0.049291  -0.062326  -0.140623  -0.000540
   48  C 12  Z   -0.105814  -0.054537  -0.073523  -0.030413   0.095658
   49  C 13  S   -0.081035  -0.027137  -0.142915   0.042188  -0.131781
   50  C 13  X   -0.197462   0.004569   0.109603   0.043294  -0.218559
   51  C 13  Y    0.019474   0.056897  -0.011026   0.029961   0.085121
   52  C 13  Z   -0.015411   0.177862  -0.021137   0.157200  -0.012613
   53  C 14  S   -0.076056   0.007250   0.146411   0.014096  -0.101310
   54  C 14  X    0.197743   0.019467   0.093992  -0.059483   0.231637
[...]
   37  C 10  S    0.028504   0.013670   0.004251   0.136431   0.027530
   38  C 10  X    0.027076   0.024788  -0.001407   0.025289   0.049699
   39  C 10  Y   -0.245489  -0.186735   0.085540  -0.214381   0.015282
   40  C 10  Z   -0.066826  -0.030422   0.010713  -0.074633   0.031867
   41  C 11  S   -0.018039  -0.033483   0.007314   0.112161   0.012139
   42  C 11  X    0.018317   0.062241  -0.017371  -0.006835  -0.019813
   43  C 11  Y   -0.034333  -0.003788  -0.000366   0.008761  -0.046497
   44  C 11  Z    0.136166   0.328534  -0.009923  -0.192544   0.013923
   45  C 12  S    0.007662  -0.000074  -0.052679   0.004565   0.104712
   46  C 12  X    0.034118  -0.000315  -0.176019  -0.023197   0.130388
   47  C 12  Y   -0.057521   0.014012   0.137478   0.034183  -0.031166
   48  C 12  Z    0.079173   0.009866  -0.189286  -0.047031   0.042562
   49  C 13  S   -0.016922  -0.002450  -0.006536  -0.101672   0.017449
   50  C 13  X    0.018587   0.026581   0.018128   0.105441  -0.001484
   51  C 13  Y    0.096712   0.185976   0.189891   0.118213  -0.095131
   52  C 13  Z   -0.021279  -0.051507  -0.059111  -0.035878   0.030854
   53  C 14  S   -0.017035  -0.002682   0.006756  -0.101646  -0.019012
   54  C 14  X   -0.018509  -0.026456   0.018175  -0.105245  -0.003088
   55  C 14  Y    0.096676   0.186192  -0.189911   0.117049   0.097060
   56  C 14  Z   -0.021340  -0.051624   0.059176  -0.035545  -0.031385
   57  C 15  S    0.000684   0.000051   0.035946   0.107960  -0.027396
   58  C 15  X   -0.039050  -0.000026   0.072577  -0.025603  -0.042743
   59  C 15  Y    0.128828  -0.022455  -0.168499  -0.094673  -0.024447
   60  C 15  Z   -0.177536  -0.016540   0.232344   0.130330   0.033353
   61  C 16  S    0.028577   0.013706  -0.004308   0.136740  -0.025471
   62  C 16  X   -0.027020  -0.024743  -0.001403  -0.025773   0.049219
   63  C 16  Y   -0.245600  -0.186651  -0.085411  -0.214008  -0.018690
   64  C 16  Z   -0.066838  -0.030449  -0.010714  -0.074222  -0.032899
   65  C 17  S    0.034304  -0.020126  -0.027682  -0.038421  -0.097847
   66  C 17  X    0.173362  -0.118729  -0.137109  -0.069526  -0.159621
   67  C 17  Y    0.090375  -0.046030  -0.112956  -0.045680  -0.045192
   68  C 17  Z    0.074277  -0.051575  -0.059391  -0.061293  -0.098594
   69  C 18  S   -0.016977   0.002475  -0.006405  -0.101745   0.017200
   70  C 18  X    0.018626  -0.026528   0.018093   0.105273  -0.001615
   71  C 18  Y   -0.009636   0.008397  -0.002560  -0.002271   0.000267
   72  C 18  Z   -0.099323   0.193454  -0.198196  -0.123653   0.099437
   73  C 19  S   -0.016987   0.002487   0.006480  -0.101447  -0.018427
   74  C 19  X   -0.018575   0.026406   0.018073  -0.105134  -0.002811
   75  C 19  Y   -0.009594   0.008390   0.002525  -0.002257  -0.000011
   76  C 19  Z   -0.099307   0.193468   0.198413  -0.122217  -0.100729
   77  C 20  S    0.028580  -0.013614   0.004206   0.136320   0.026939
   78  C 20  X    0.026942  -0.024651  -0.001478   0.024981   0.049357
   79  C 20  Y    0.139460  -0.086286  -0.036993   0.136940  -0.035294
   80  C 20  Z    0.213073  -0.167826  -0.078553   0.180045  -0.005221
   81  C 21  S    0.000582   0.000025  -0.036149   0.107616   0.028977
   82  C 21  X    0.039159  -0.000023   0.072649   0.026043  -0.042448
   83  C 21  Y    0.129058  -0.022475   0.168697  -0.094850   0.022814
   84  C 21  Z   -0.177656  -0.016422  -0.232327   0.130715  -0.031388
   85  C 22  S   -0.004299  -0.010065   0.018353  -0.105650  -0.038599
   86  C 22  X    0.011856   0.034823  -0.011838   0.115916   0.022580
   87  C 22  Y   -0.034602  -0.147660   0.134491  -0.114352  -0.256386
   88  C 22  Z   -0.061062  -0.005658   0.022930  -0.047490  -0.078513
   89  C 23  S   -0.004263  -0.010108  -0.018338  -0.106069   0.037572
   90  C 23  X   -0.011799  -0.034852  -0.011814  -0.116127   0.021456
   91  C 23  Y   -0.034502  -0.147739  -0.134560  -0.117499   0.255575
   92  C 23  Z   -0.061041  -0.005713  -0.022913  -0.048492   0.078136
   93  C 24  S   -0.018155   0.033450   0.007279   0.111969   0.011840
   94  C 24  X    0.018443  -0.062316  -0.017265  -0.006683  -0.019729
   95  C 24  Y   -0.119279   0.311077   0.009102   0.179699   0.001633
   96  C 24  Z    0.074925  -0.105041  -0.002554  -0.068043   0.048243
   97  C 25  S    0.028620  -0.013653  -0.004242   0.136725  -0.025561
   98  C 25  X   -0.027087   0.024750  -0.001511  -0.025678   0.049161
   99  C 25  Y    0.139521  -0.086326   0.036895   0.136522   0.036456
  100  C 25  Z    0.213122  -0.167855   0.078341   0.179999   0.006958
  101  C 26  S   -0.027253   0.015813  -0.032735   0.002017  -0.043516
  102  C 26  X    0.162331  -0.124122   0.169856   0.003710   0.101815
  103  C 26  Y   -0.131419   0.052615  -0.165144  -0.008692  -0.092460
  104  C 26  Z    0.024159  -0.018388   0.032674   0.020092  -0.025148
  105  C 27  S    0.034307  -0.020172   0.027633  -0.039576   0.097455
  106  C 27  X   -0.173614   0.118927  -0.137109   0.071387  -0.158849
  107  C 27  Y    0.090468  -0.046088   0.112954  -0.046161   0.044585
  108  C 27  Z    0.074255  -0.051542   0.059271  -0.062421   0.097904
  109  C 28  S    0.007697  -0.000091   0.052731   0.005822  -0.104757
  110  C 28  X   -0.034208   0.000388  -0.176182   0.021573   0.130928
  111  C 28  Y   -0.057596   0.014083  -0.137534   0.033750   0.031715
  112  C 28  Z    0.079228   0.009825   0.189211  -0.046420  -0.043416
  113  C 29  S    0.034291   0.020223   0.027585  -0.039502   0.097824
  114  C 29  X   -0.173475  -0.119007  -0.136957   0.071517  -0.159587
  115  C 29  Y   -0.098697  -0.063443  -0.091402   0.073823  -0.107328
  116  C 29  Z   -0.063143  -0.027831  -0.089167   0.024635  -0.012473
  117  C 30  S   -0.027347  -0.015797  -0.032744   0.001789  -0.044179
  118  C 30  X    0.162228   0.124037   0.169588   0.003994   0.102850
  119  C 30  Y    0.017745  -0.001076   0.020090  -0.016573   0.052418
  120  C 30  Z    0.132491   0.055592   0.167086   0.014708   0.080790

                     66         67         68         69         70
                   -0.0565    -0.0474    -0.0466    -0.0420    -0.0418
                     A          A          A          A          A   
    1  C  1  S   -0.031974   0.185257   0.057924   0.076293   0.225978
    2  C  1  X   -0.057340   0.239659   0.046923   0.120096   0.208016
    3  C  1  Y   -0.063963   0.120733   0.032964   0.160870   0.111252
    4  C  1  Z    0.051239  -0.077248   0.052274   0.005915  -0.085700
    5  C  2  S    0.083036  -0.058648  -0.005992  -0.131247  -0.111856
    6  C  2  X    0.038767  -0.084599  -0.020378  -0.060184  -0.103164
    7  C  2  Y    0.172893   0.034192   0.043245  -0.218492  -0.069244
    8  C  2  Z   -0.032990  -0.001168  -0.026009   0.098064   0.025269
    9  C  3  S   -0.000086  -0.000265  -0.005379   0.100077  -0.003413
   10  C  3  X    0.000083   0.000013  -0.000924  -0.128098   0.004671
   11  C  3  Y   -0.077840  -0.014104  -0.021926   0.101140   0.050372
   12  C  3  Z   -0.057226  -0.009966   0.030521  -0.134797   0.043677
   13  C  4  S   -0.000120   0.000357  -0.005606   0.098908  -0.003772
   14  C  4  X   -0.000093  -0.000003   0.000842   0.128447  -0.004716
   15  C  4  Y   -0.078458   0.014191  -0.022173   0.100309   0.050020
   16  C  4  Z   -0.056562   0.009248   0.031384  -0.133730   0.044511
   17  C  5  S    0.032377  -0.185543   0.053293   0.059761  -0.231527
   18  C  5  X    0.057662  -0.239643   0.041355   0.104726  -0.216607
   19  C  5  Y    0.028529  -0.035748  -0.060884  -0.058529  -0.042392
   20  C  5  Z   -0.076944   0.138216  -0.011677  -0.140980   0.143045
   21  C  6  S   -0.082989   0.058476  -0.004017  -0.122773   0.121237
   22  C  6  X   -0.038890   0.084515  -0.018146  -0.052616   0.107529
   23  C  6  Y    0.022398   0.008980   0.011404  -0.025109   0.004578
   24  C  6  Z    0.174060   0.033842  -0.049774   0.232296  -0.090644
   25  C  7  S    0.023494   0.128269  -0.162937  -0.093964   0.155418
   26  C  7  X    0.031955   0.175550  -0.126458  -0.109994   0.160712
   27  C  7  Y   -0.084321  -0.092015   0.091069   0.089757  -0.091531
   28  C  7  Z   -0.011489  -0.091062  -0.054712   0.044357  -0.102881
   29  C  8  S    0.083170  -0.009732  -0.016919   0.026448  -0.008455
   30  C  8  X   -0.106848   0.015341   0.030543  -0.028134   0.017437
   31  C  8  Y   -0.121226   0.093053   0.022748   0.049387  -0.048103
   32  C  8  Z   -0.114927   0.101495   0.027584  -0.094510   0.051774
   33  C  9  S    0.083383   0.010216  -0.016537   0.027312  -0.008315
   34  C  9  X    0.106955   0.016175  -0.030240   0.028282  -0.017434
   35  C  9  Y   -0.121551  -0.093562   0.020738   0.048295  -0.048685
   36  C  9  Z   -0.115388  -0.102228   0.025412  -0.095521   0.051297
   37  C 10  S   -0.122550  -0.053238   0.057715   0.066014  -0.091002
   38  C 10  X   -0.041273  -0.055643   0.074432   0.055513  -0.075550
   39  C 10  Y    0.278490  -0.021345  -0.023418  -0.099707   0.071169
   40  C 10  Z    0.100292   0.009754  -0.025767  -0.003841   0.025166
   41  C 11  S   -0.082697  -0.058867  -0.005101  -0.123010   0.120803
   42  C 11  X    0.038600   0.084608   0.019737   0.052867  -0.107088
   43  C 11  Y    0.022323  -0.009125   0.011084  -0.025613   0.004338
   44  C 11  Z    0.174165  -0.032400  -0.050144   0.232526  -0.090528
   45  C 12  S    0.000658  -0.001050   0.247102   0.057989  -0.003215
   46  C 12  X    0.000763  -0.001153   0.253066  -0.005187  -0.000881
   47  C 12  Y    0.017965   0.075679  -0.121127   0.060963   0.083411
   48  C 12  Z    0.013641   0.053490   0.168587  -0.077426   0.064068
   49  C 13  S    0.049762  -0.027604   0.054220  -0.045274   0.030508
   50  C 13  X   -0.064880  -0.014474  -0.061863   0.058900  -0.049296
   51  C 13  Y   -0.162919  -0.162992  -0.019430   0.076548  -0.042352
   52  C 13  Z   -0.020491   0.059306   0.109113  -0.047162  -0.007961
   53  C 14  S    0.049891   0.026600   0.054671  -0.045802   0.030613
   54  C 14  X    0.064796  -0.015482   0.061449  -0.058837   0.049197
   55  C 14  Y   -0.162805   0.163058  -0.016644   0.076986  -0.041959
   56  C 14  Z   -0.020425  -0.061098   0.107823  -0.048016  -0.008232
   57  C 15  S   -0.000297   0.001295  -0.201600   0.051900  -0.001177
   58  C 15  X   -0.000287   0.000179  -0.090374  -0.015606   0.001040
   59  C 15  Y    0.037888  -0.006272   0.170575  -0.104420   0.007251
   60  C 15  Z    0.027067  -0.002515  -0.235267   0.144035  -0.001348
   61  C 16  S   -0.122692   0.052274   0.058859   0.066791  -0.090643
   62  C 16  X    0.041421  -0.054443  -0.075522  -0.056414   0.075014
   63  C 16  Y    0.278309   0.022102  -0.023369  -0.100339   0.070872
   64  C 16  Z    0.100173  -0.009155  -0.026141  -0.004503   0.025028
   65  C 17  S   -0.024516  -0.127132  -0.165917  -0.104904  -0.146581
   66  C 17  X   -0.032963  -0.174833  -0.130208  -0.121313  -0.151079
   67  C 17  Y   -0.037109  -0.115594   0.021228  -0.078888  -0.120878
   68  C 17  Z   -0.077447  -0.058607  -0.104547  -0.075329  -0.048902
   69  C 18  S   -0.049966   0.026791   0.054787  -0.047598  -0.027311
   70  C 18  X    0.064880   0.015461  -0.061544   0.062338   0.045142
   71  C 18  Y   -0.070127   0.008072  -0.097473   0.019668  -0.021743
   72  C 18  Z   -0.148696  -0.173810   0.049981  -0.090765  -0.031455
   73  C 19  S   -0.049844  -0.027676   0.054155  -0.047667  -0.027482
   74  C 19  X   -0.064771   0.014393   0.061718  -0.062314  -0.045071
   75  C 19  Y   -0.070111  -0.006522  -0.097389   0.020330  -0.021552
   76  C 19  Z   -0.149010   0.172839   0.052480  -0.090357  -0.031276
   77  C 20  S    0.123191   0.053051   0.058704   0.072303   0.085204
   78  C 20  X    0.041451   0.055100   0.075589   0.060697   0.070433
   79  C 20  Y    0.181807   0.002604   0.031372   0.037648   0.042672
   80  C 20  Z    0.234033  -0.023121   0.013403   0.097557   0.052374
   81  C 21  S   -0.000117   0.002065  -0.201963   0.050722  -0.001452
   82  C 21  X    0.000199  -0.001280   0.090714   0.016719  -0.000716
   83  C 21  Y    0.037873   0.003501   0.170958  -0.103136   0.007577
   84  C 21  Z    0.027018   0.006351  -0.235486   0.142506  -0.001821
   85  C 22  S   -0.083695   0.010571  -0.016429   0.027145   0.006347
   86  C 22  X    0.107397  -0.016032   0.029781  -0.029466  -0.015604
   87  C 22  Y   -0.147778   0.126482  -0.030656   0.077815   0.028653
   88  C 22  Z   -0.080303   0.057828  -0.012214  -0.080233  -0.056177
   89  C 23  S   -0.083546  -0.010450  -0.016314   0.027777   0.006778
   90  C 23  X   -0.107246  -0.015712  -0.029988   0.029537   0.015675
   91  C 23  Y   -0.147006  -0.126293  -0.031954   0.078347   0.029228
   92  C 23  Z   -0.080061  -0.057605  -0.012891  -0.079580  -0.055930
   93  C 24  S    0.082920   0.059205  -0.005052  -0.131716  -0.111643
   94  C 24  X   -0.038642  -0.085302   0.019046   0.060734   0.103006
   95  C 24  Y    0.172996  -0.034397   0.042729  -0.219048  -0.069264
   96  C 24  Z   -0.032868   0.001404  -0.025803   0.098759   0.025557
   97  C 25  S    0.123353  -0.054068   0.057977   0.073228   0.085360
   98  C 25  X   -0.041592   0.056500  -0.074873  -0.061868  -0.070548
   99  C 25  Y    0.181884  -0.002942   0.031551   0.038486   0.043006
  100  C 25  Z    0.234024   0.023162   0.013755   0.098378   0.052546
  101  C 26  S   -0.031693  -0.186905   0.054932   0.077237   0.225538
  102  C 26  X    0.057036   0.241036  -0.043066  -0.120847  -0.207349
  103  C 26  Y   -0.063896  -0.121719   0.031069   0.161653   0.111011
  104  C 26  Z    0.051034   0.076857   0.053637   0.006274  -0.085468
  105  C 27  S   -0.024543   0.130279  -0.164151  -0.106896  -0.146667
  106  C 27  X    0.032935  -0.177467   0.127597   0.122905   0.150898
  107  C 27  Y   -0.037257   0.115506   0.023197  -0.078943  -0.120506
  108  C 27  Z   -0.077310   0.060256  -0.103669  -0.076343  -0.048904
  109  C 28  S    0.000366  -0.003070   0.247627   0.060432  -0.002589
  110  C 28  X   -0.000446   0.003088  -0.253556   0.002973   0.000283
  111  C 28  Y    0.018213  -0.073879  -0.122554   0.060235   0.083007
  112  C 28  Z    0.013600  -0.056417   0.167710  -0.076312   0.064154
  113  C 29  S    0.024010  -0.125889  -0.165491  -0.095738   0.154512
  114  C 29  X   -0.032675   0.173733   0.129725   0.111489  -0.159787
  115  C 29  Y   -0.084753   0.090541   0.092816   0.090777  -0.091042
  116  C 29  Z   -0.011733   0.092322  -0.053113   0.044099  -0.102800
  117  C 30  S    0.031849   0.185309   0.056604   0.060364  -0.230678
  118  C 30  X   -0.056881  -0.239488  -0.045462  -0.105319   0.215644
  119  C 30  Y    0.028589   0.036913  -0.060409  -0.059240  -0.042405
  120  C 30  Z   -0.076470  -0.138719  -0.014114  -0.141626   0.142670

     ----------------------------------------------------------------
     PROPERTY VALUES FOR THE RHF   SELF-CONSISTENT FIELD WAVEFUNCTION
     ----------------------------------------------------------------

                    -------------
                    MOPAC CHARGES
                    -------------
         ATOM NO.   TYPE          CHARGE        ATOM  ELECTRON DENSITY
           1         C              0.0049          3.9951
           2         C             -0.0035          4.0035
           3         C              0.0279          3.9721
           4         C              0.0279          3.9721
           5         C              0.0043          3.9957
           6         C             -0.0032          4.0032
           7         C             -0.0262          4.0262
           8         C             -0.0067          4.0067
           9         C             -0.0065          4.0065
          10         C              0.0136          3.9864
          11         C             -0.0032          4.0032
          12         C             -0.0303          4.0303
          13         C             -0.0004          4.0004
          14         C             -0.0002          4.0002
          15         C              0.0391          3.9609
          16         C              0.0136          3.9864
          17         C             -0.0266          4.0266
          18         C             -0.0003          4.0003
          19         C             -0.0003          4.0003
          20         C              0.0136          3.9864
          21         C              0.0392          3.9608
          22         C             -0.0065          4.0065
          23         C             -0.0064          4.0064
          24         C             -0.0033          4.0033
          25         C              0.0136          3.9864
          26         C              0.0047          3.9953
          27         C             -0.0264          4.0264
          28         C             -0.0303          4.0303
          29         C             -0.0262          4.0262
          30         C              0.0043          3.9957

          ---------------------
          ELECTROSTATIC MOMENTS
          ---------------------

 POINT   1           X           Y           Z (ANGS)      CHARGE
                 0.000000    0.000000    0.000000        0.00 (A.U.)
         DX          DY          DZ         /D/  (DEBYE)
    -0.001157    0.172594   -0.236313    0.292632
 ...... END OF PROPERTY EVALUATION ......
 CPU     0: STEP CPU TIME=     0.06 TOTAL CPU TIME=          0.9 (      0.0 MIN)
 TOTAL WALL CLOCK TIME=          1.1 SECONDS, CPU UTILIZATION IS    82.61%
  $VIB   
          IVIB=   0 IATOM=   0 ICOORD=   0 E=     -129.4129122439
  1.584119388E-04 5.223248902E-05 5.216214237E-05 4.987763737E-05 2.277018896E-04
  6.280745220E-05-1.100922167E-04 2.945372868E-05-3.754677171E-04 2.977892148E-05
 -1.715420279E-04-7.422156058E-05 2.123686745E-04-6.282064297E-05-4.692661828E-05
  7.132213695E-05 2.378525191E-04-2.141328929E-04 9.185150827E-05-6.207924298E-05
 -1.124942199E-04 7.867795983E-05-2.899430229E-04 1.461013566E-04-3.706363633E-05
 -2.745525151E-04 7.422117781E-05-1.426134070E-04-4.054260696E-05-2.353674552E-04
  5.298730502E-05 1.460125656E-04-9.145101503E-05 6.290702278E-05 1.274299251E-05
  7.501414978E-05 3.413223371E-04 6.808864516E-06 8.996563935E-06-1.598514066E-04
 -2.322449091E-04 1.648463365E-04-1.204253103E-04-2.535760918E-05 8.529898087E-05
 -3.977852591E-05-1.187849645E-04-2.105659078E-04 8.796234823E-05 1.080931733E-04
  7.433865115E-05 1.089916245E-05-7.065249582E-05 2.853281754E-05-2.513678739E-05
 -3.335850734E-05 5.381222309E-05 8.082317683E-05 4.566550511E-05 7.465723059E-05
  5.679120314E-05-9.203742412E-05 1.599729659E-04-1.468465760E-04 1.137976290E-04
  1.197926520E-05 1.256373961E-04 1.231557204E-04-2.392082491E-05-2.915740332E-05
  1.526294191E-04 1.996229516E-04 4.141699665E-05 1.279044240E-04 1.865952879E-04
 -1.772098297E-04 7.688557324E-05 2.039632911E-05-2.015679151E-04 3.839340205E-05
  1.053800939E-05-9.314311388E-05 2.361715107E-05 3.224282294E-05-7.569545478E-05
 -6.498432650E-05-8.448313163E-05-1.944541427E-04 1.595324914E-05-5.310537116E-05
 -1.157415495E-03 1.725942447E-01-2.363126080E-01
 ......END OF GEOMETRY SEARCH......
 CPU     0: STEP CPU TIME=     0.02 TOTAL CPU TIME=          0.9 (      0.0 MIN)
 TOTAL WALL CLOCK TIME=          1.1 SECONDS, CPU UTILIZATION IS    82.09%
                580000  WORDS OF DYNAMIC MEMORY USED
 EXECUTION OF GAMESS TERMINATED NORMALLY 21:03:09 22-MAY-2023    
 DDI: 263640 bytes (0.3 MB / 0 MWords) used by master data server.

 ----------------------------------------
 CPU timing information for all processes
 ========================================
 0: 0.718750 + 0.375000 = 1.093750
 1: 0.718750 + 0.140625 = 0.859375
 2: 0.359375 + 0.453125 = 0.812500
 3: 0.218750 + 0.218750 = 0.437500
 ----------------------------------------
           Disk usage (in bytes)       
 ========================================
 ----------------------------------------
            Local date and time          
 ========================================
22.05.2023 - 21:03:09,48                          
