          *******************************************************
          *                                                     *
          *          GAMESS VERSION = 30 SEP 2022 (R2)          *
          *                                                     *
          *              doi.org/10.1063/5.0005188              *
          *                                                     *
          *************** 64 BIT WINDOWS VERSION ****************

  GAMESS HAS BEEN MADE POSSIBLE WITH IMPORTANT CONTRIBUTIONS FROM
  THE FOLLOWING INDIVIDUALS (IN ALPHABETICAL ORDER):

     IVANA ADAMOVIC, CHRISTINE AIKENS, TOMOKO AKAMA,
     MELISA ALKAN, YURI ALEXEEV, YURIKO AOKI, POOJA ARORA,
     TOSHIO ASADA, ANDREY ASADCHEV, KIM K. BALDRIDGE,
     PRADIPTA BANDYOPADHYAY, TAYLOR A. BARNES, MARIA BARYSZ,
     ROB BELL, JONATHAN BENTZ, COLLEEN BERTONI,
     JERRY A. BOATZ, BRETT BODE, KURT BRORSEN, KURT R. BRORSEN,
     LAIMUTIS BYTAUTAS, CALEB CARLIN, LAURA CARRINGTON,
     GALINA CHABAN, BENOIT CHAMPAGNE, WEI CHEN, MAHITO CHIBA,
     DAN CHIPMAN, CHEOL HO CHOI, TANNER CULPITT,
     DIPAYAN DATTA, PAUL DAY, ALBERT DEFUSCO,
     NUWAN DESILVA, J. EMILIANO DEUSTUA,
     TIM DUDLEY, MICHEL DUPUIS, STEVEN T. ELBERT,
     DMITRI FEDOROV, KATHERINE FERRERAS, MICHAEL FILATOV,
     ALEX FINDLATER,GRAHAM FLETCHER, MARK FREITAG,
     CHRISTIAN FRIEDL, DAVID GARMER, 
     IGOR S. GERASIMOV, KURT GLAESEMANN,
     MARK S. GORDON, JEFFREY GOUR, FENG LONG GU,
     EMILIE B. GUIDEZ, ANASTASIA GUNINA, SHARON HAMMES-SCHIFFER,
     MASATAKE HARUTA, KIMIHIKO HIRAO, YASUHIRO IKABATA,
     TZVETELIN IORDANOV, STEPHAN IRLE, KAZUYA ISHIMURA,
     JOE IVANIC, FRANK JENSEN, JAN H. JENSEN, VISVALDAS KAIRYS,
     MUNEAKI KAMIYA, MICHIO KATOUDA, NAOAKI KAWAKAMI, DAN KEMP,
     BERNARD KIRTMAN, KAZUO KITAURA, MARIUSZ KLOBUKOWSKI,
     MASATO KOBAYASHI, KONSTANTIN KOMAROV, PRAKASHAN KORAMBATH,
     JACEK KORCHOWIEC, SHIRO KOSEKI, KAROL KOWALSKI,
     JIMMY KROMANN, STANISLAW KUCHARSKI, HENRY KURTZ,
     SAROM SOK LEANG, SEUNGHOON LEE, HUI LI, SHUHUA LI, WEI LI,
     JESSE LUTZ, ALEKSANDR O. LYKHIN, MARCIN MAKOWSKI,
     JOANI MATO, NIKITA MATSUNAGA, BENEDETTA MENNUCCI,
     GRANT MERRILL, NORIYUKI MINEZAWA, VLADIMIR MIRONOV,
     EISAKU MIYOSHI, JOHN A. MONTGOMERY JR., HIROTOSHI MORI,
     JONATHAN MULLIN, MONIKA MUSIAL, SHIGERU NAGASE,
     TAKESHI NAGATA, HIROMI NAKAI, TAKAHITO NAKAJIMA,
     YUYA NAKAJIMA, HARUYUKI NAKANO, HIROYA NAKATA, SEAN NEDD,
     HEATHER NETZLOFF, KIET A. NGUYEN, YOSHIO NISHIMOTO,
     BOSILJKA NJEGIC, RYAN OLSON, MIKE PAK, ROBERTO PEVERATI,
     BUU PHAM, PIOTR PIECUCH, ANNA POMOGAEVA, DAVID POOLE,
     SPENCER PRUITT, OLIVIER QUINET, LUKE ROSKOP,
     KLAUS RUEDENBERG, ANDREW SAND, TOSAPORN SATTASATHUCHANA,
     NOZOMI SAWADA, MICHAEL W. SCHMIDT, PATRICK E. SCHNEIDER,
     JUNJI SEINO, PRACHI SHARMA, JUN SHEN, JIM SHOEMAKER,
     YINAN SHU, DEJUN SI, JONATHAN SKONE, LYUDMILA SLIPCHENKO,
     TONY SMITH, JIE SONG, MARK SPACKMAN, CASPER STEINMANN,
     WALT STEVENS, PEIFENG SU, SHUJUN SU, CHET SWALINA,
     CHINAMI TAKASHIMA, TETSUYA TAKETSUGU, ZHEN TAO,
     NANDUN THELLAMUREGE, SEIKEN TOKURA, JACOPO TOMASI,
     TSUGUKI TOUMA, TAKAO TSUNEDA, HIROAKI UMEDA,
     JORGE LUIS GALVEZ VALLEJO, YALI WANG, SIMON WEBB,
     AARON WEST, THERESA L. WINDUS, MARTA WLOCH,
     PENG XU, KIYOSHI YAGI, SUSUMU YANAGISAWA, YANG YANG,
     SOOHAENG YOO, TAKESHI YOSHIKAWA, FEDERICO ZAHARIEV,
     TOBY ZENG

  WHO ARE SUPPORTED BY THEIR INSTITUTION/UNIVERSITY/COMPANY/GROUP
  (IN ALPHABETICAL ORDER):

     EP ANALYTICS,
     FACULTES UNIVERSITAIRES NOTRE-DAME DE LA PAIX,
     INSTITUTE FOR MOLECULAR SCIENCE, IOWA STATE UNIVERSITY,
     JACKSON STATE UNIVERSITY, JOHANNES KEPLER UNIVERSITY LINZ,
     KYUNGPOOK NATIONAL UNIVERSITY
     KYUSHU UNIVERSITY, MICHIGAN STATE UNIVERSITY,
     MIE UNIVERSITY, THE MOLECULAR SCIENCES SOFTWARE INSTITUTE,
     MOSCOW STATE UNIVERSITY,
     N. COPERNICUS UNIVERSITY, NAGOYA UNIVERSITY,
     NANJING UNIVERSITY, NAT. INST. OF ADVANCED INDUSTRIAL
     SCIENCE AND TECHNOLOGY, NATIONAL INST. OF STANDARDS AND
     TECHNOLOGY, NESMEYANOV INSTITUTE OF ORGANOELEMENT COMPOUNDS
     OF RUSSIAN ACADEMY OF SCIENCES, OSAKA PREFECTURE UNIVERSITY,
     PENNSYLVANIA STATE UNIVERSITY, TOKYO INSTITUTE OF TECHNOLOGY,
     UNIVERSITY OF AARHUS, UNIVERSITY OF ALBERTA,
     UNIVERSITY OF CALIFORNIA AT SANTA BARBARA,
     UNIVERSITY OF COPENHAGEN, UNIVERSITY OF IOWA,
     UNIVERSITY OF MEMPHIS, UNIVERSITY OF MINNESOTA,
     UNIVERSITY OF NEBRASKA, UNIVERSITY OF NEW ENGLAND,
     UNIVERSITY OF NOTRE DAME, UNIVERSITY OF PISA,
     UNIVERSITY OF SILESIA, UNIVERSITY OF TOKYO,
     UNIVERSITY OF ZURICH, WASEDA UNIVERSITY,
     YALE UNIVERSITY

  GAMESS SOFTWARE MANAGEMENT TEAM FOR THIS RELEASE:
     MARK S. GORDON (TEAM LEAD),
     BRETT BODE (SENIOR ADVISOR),
     GIUSEPPE BARCA,
     COLLEEN BERTONI,
     KRISTOPHER KEIPERT (ADVISOR),
     SAROM S. LEANG (DEVELOPMENT LEAD),
     BUU PHAM,
     JACKSON HAYES (WEBSITE ADMINISTRATOR),
     PENG XU


 PARALLEL VERSION RUNNING ON        2 PROCESSORS IN        2 NODES.

 EXECUTION OF GAMESS BEGUN 21:04:09 22-MAY-2023    

            ECHO OF THE FIRST FEW INPUT CARDS -
 INPUT CARD>! (Energy/Geometry) PM3                                                         
 INPUT CARD> $CONTRL                                                                        
 INPUT CARD>COORD=UNIQUE                                                                    
 INPUT CARD>ICHARG=0                                                                        
 INPUT CARD>MAXIT=200                                                                       
 INPUT CARD>MULT=1                                                                          
 INPUT CARD>RUNTYP=OPTIMIZE                                                                 
 INPUT CARD>SCFTYP=RHF                                                                      
 INPUT CARD>UNITS=ANGS                                                                      
 INPUT CARD>! DFTTYP=PBE                                                                    
 INPUT CARD> $END                                                                           
 INPUT CARD> $DFT                                                                           
 INPUT CARD>METHOD=GRID                                                                     
 INPUT CARD> $END                                                                           
 INPUT CARD> $BASIS                                                                         
 INPUT CARD>! EXTFIL=.T.                                                                    
 INPUT CARD>! GBASIS=GEGSSBAS                                                               
 INPUT CARD>! NGAUSS=6                                                                      
 INPUT CARD>GBASIS=PM3                                                                      
 INPUT CARD>! NDFUNC=1                                                                      
 INPUT CARD>! NPFUNC=1                                                                      
 INPUT CARD> $END                                                                           
 INPUT CARD> $SCF                                                                           
 INPUT CARD>DAMP=.F.                                                                        
 INPUT CARD>DEM=.F.                                                                         
 INPUT CARD>DIIS=.F.                                                                        
 INPUT CARD>DIRSCF=.T.                                                                      
 INPUT CARD>EXTRAP=.T.                                                                      
 INPUT CARD>RSTRCT=.F.                                                                      
 INPUT CARD>SHIFT=.F.                                                                       
 INPUT CARD>SOSCF=.T.                                                                       
 INPUT CARD> $END                                                                           
 INPUT CARD> $STATPT                                                                        
 INPUT CARD>METHOD=QA                                                                       
 INPUT CARD>NSTEP=100                                                                       
 INPUT CARD>OPTTOL=0.001                                                                    
 INPUT CARD> $END                                                                           
 INPUT CARD> $GUESS                                                                         
 INPUT CARD>GUESS=HUCKEL                                                                    
 INPUT CARD> $END                                                                           
 INPUT CARD> $SYSTEM                                                                        
 INPUT CARD>MWORDS=10                                                                       
 INPUT CARD> $END                                                                           
 INPUT CARD> $DATA                                                                          
 INPUT CARD>C32 FULLERENE                                                                   
 INPUT CARD>C1                                                                              
 INPUT CARD>C	6.0	1.59180	1.68580	-1.07190                                                  
 INPUT CARD>C	6.0	0.52220	2.42230	-0.67840                                                  
 INPUT CARD>C	6.0	-0.75910	2.19970	-1.07340                                                 
 INPUT CARD>C	6.0	1.36400	0.43560	-1.69220                                                  
     10000000 WORDS OF MEMORY AVAILABLE

     BASIS OPTIONS
     -------------
     GBASIS=PM3          IGAUSS=       0      POLAR=NONE    
     NDFUNC=       0     NFFUNC=       0     DIFFSP=       F
     NPFUNC=       0      DIFFS=       F     BASNAM=        


     RUN TITLE
     ---------
 C32 FULLERENE                                                                   

 THE POINT GROUP OF THE MOLECULE IS C1      
 THE ORDER OF THE PRINCIPAL AXIS IS     0

 ATOM      ATOMIC                      COORDINATES (BOHR)
           CHARGE         X                   Y                   Z
 C           6.0     3.0080658273        3.1857000701       -2.0255972862
 C           6.0     0.9868149108        4.5774832601       -1.2819901101
 C           6.0    -1.4344909973        4.1568302552       -2.0284318752
 C           6.0     2.5775862473        0.8231646403       -3.1977943164
 C           6.0    -0.5478315638       -2.5840113156       -3.1443150710
 C           6.0     0.0154957531        0.0319363692       -3.7017842373
 C           6.0    -1.9819446159        1.8235855782       -3.1949597274
 C           6.0     1.2366366864       -4.1951916927       -1.9794879721
 C           6.0    -4.6821740798        2.5804208362        0.0111493833
 C           6.0    -3.0042863753        4.4692019610        0.0145508901
 C           6.0    -4.4314074412       -1.4080348335       -1.2666833296
 C           6.0    -4.2322303221        1.0240425127       -2.0390143408
 C           6.0    -2.8434706937       -3.3022961635       -1.9749526298
 C           6.0    -1.4378925041        4.2025616241        2.0673602306
 C           6.0     1.0051452529        4.6515605188        1.3500202456
 C           6.0     3.0356558267        3.2210379461        2.0061331086
 C           6.0    -4.3255827859        1.0142159376        2.0563998198
 C           6.0    -2.0165266015        1.8330342081        3.1558423995
 C           6.0     4.6224587386        2.7835663799       -0.0064250684
 C           6.0     5.3755145447        0.3911732795       -0.0404401361
 C           6.0    -0.0253223282        0.0120942463        3.6027625956
 C           6.0     2.5467837137        0.8263771744        3.0940483597
 C           6.0     4.3221812791       -0.8543451190        2.0159596837
 C           6.0     3.4791745160       -3.1456378792       -1.2785886033
 C           6.0     4.3276614845       -0.8539671739       -2.0622579704
 C           6.0     1.2640377132       -4.2293957331        2.0220068069
 C           6.0     3.5111108852       -3.1994950698        1.3485084648
 C           6.0    -4.5434681923       -1.4592464077        1.3606027112
 C           6.0    -2.9421143903       -3.3678696553        2.0167155741
 C           6.0    -0.6039564257       -2.6195381642        3.0864894557
 C           6.0    -2.3600787861       -4.9346414717        0.0085037669
 C           6.0     0.0886281488       -5.4431667350        0.0105824655

          INTERNUCLEAR DISTANCES (ANGS.)
          ------------------------------

                1 C          2 C          3 C          4 C          5 C     

   1 C       0.0000000    1.3569520 *  2.4064136 *  1.4140951 *  3.6350088  
   2 C       1.3569520 *  0.0000000    1.3591562 *  2.3839871 *  3.9990677  
   3 C       2.4064136 *  1.3591562 *  0.0000000    2.8288718 *  3.6459623  
   4 C       1.4140951 *  2.3839871 *  2.8288718 *  0.0000000    2.4468337 *
   5 C       3.6350088    3.9990677    3.6459623    2.4468337 *  0.0000000  
   6 C       2.4657220 *  2.7730534 *  2.4773929 *  1.4438256 *  1.4464353 *
   7 C       2.8062848 *  2.3699189 *  1.4104855 *  2.4701964 *  2.4529038 *
   8 C       4.0167882    4.6588261    4.6403018    2.8233635 *  1.4137108 *
   9 C       4.2219753    3.2533817    2.1941659 *  4.3019666    3.8785878  
  10 C       3.4277438    2.2213871 *  1.3733768 *  3.9162710    4.2912465  
  11 C       4.6442385    4.2723909    3.3688894    4.0243028    2.3659954 *
  12 C       3.9985227    3.3651038    2.2226589 *  3.6569450    2.7908537 *
  13 C       4.6234813    4.6508090    4.0171020    3.6625270    1.4153192 *
  14 C       3.2428185    2.1970685 *  2.1675358 *  3.9339709    4.5525036  
  15 C       2.2171978 *  1.3933853 *  2.2206866 *  3.2539798    4.5817182  
  16 C       2.1336319 *  2.1721709 *  3.2247540    3.0417560    4.5233697  
  17 C       4.5877087    3.8182730    3.1270877    4.5918683    3.8982114  
  18 C       3.8858891    3.1859115    3.0221300    4.1833264    4.1451620  
  19 C       1.3844871 *  2.2490413 *  3.4563420    2.2581374 *  4.2791154  
  20 C       2.2045198 *  3.2760868    4.2502013    2.2441049 *  3.8731940  
  21 C       3.7772898    3.5784282    3.7744453    3.8771233    3.8355619  
  22 C       2.9930088 *  3.1597693    3.8590873    3.3295403    4.1032423  
  23 C       3.1029398    3.7977787    4.5708252    3.0417742    3.8647045  
  24 C       3.3828380    4.2944443    4.6745379    2.3811568 *  2.3673297 *
  25 C       2.2489465 *  3.3995562    4.0409063    1.4164739 *  2.7968573 *
  26 C       4.5646984    4.9797341    5.1310249    3.9066078    3.0251653  
  27 C       3.8309056    4.5451670    5.0196089    3.2501190    3.2205685  
  28 C       5.0220996    4.5524450    3.8412441    4.6343904    3.2415937  
  29 C       5.1494742    5.0047574    4.5906623    4.5896168    3.0391208  
  30 C       4.5176035    4.5340111    4.5142069    4.1487847    3.2973874  
  31 C       5.2624407    5.3796168    4.9545427    4.3577101    2.2914028 *
  32 C       4.9394235    5.3677177    5.2555964    3.9513458    2.2781206 *

                6 C          7 C          8 C          9 C         10 C     

   1 C       2.4657220 *  2.8062848 *  4.0167882    4.2219753    3.4277438  
   2 C       2.7730534 *  2.3699189 *  4.6588261    3.2533817    2.2213871 *
   3 C       2.4773929 *  1.4104855 *  4.6403018    2.1941659 *  1.3733768 *
   4 C       1.4438256 *  2.4701964 *  2.8233635 *  4.3019666    3.9162710  
   5 C       1.4464353 *  2.4529038 *  1.4137108 *  3.8785878    4.2912465  
   6 C       0.0000000    1.4450169 *  2.5003892 *  3.4436695    3.4546625  
   7 C       1.4450169 *  0.0000000    3.6686266    2.2540202 *  2.2665488 *
   8 C       2.5003892 *  3.6686266    0.0000000    4.8760140    5.2126870  
   9 C       3.4436695    2.2540202 *  4.8760140    0.0000000    1.3369255 *
  10 C       3.4546625    2.2665488 *  5.2126870    1.3369255 *  0.0000000  
  11 C       2.7890293 *  2.3760877 *  3.3636305    2.2202451 *  3.2715032  
  12 C       2.4703145 *  1.4039926 *  4.0005399    1.3827569 *  2.2196510 *
  13 C       2.4973995 *  2.8252965 *  2.2101979 *  3.4266746    4.2459729  
  14 C       3.8448098    3.0695716    5.1319922    2.2064030 *  1.3736929 *
  15 C       3.6601726    3.2438605    5.0035727    3.2803781    2.2383807 *
  16 C       3.8112540    3.8951383    4.5559090    4.2319377    3.4296734  
  17 C       3.8512515    3.0730802    4.5633554    1.3761869 *  2.2358537 *
  18 C       3.9030225    3.3607535    4.5303939    2.2170795 *  2.2321473 *
  19 C       3.4478347    3.9139968    4.2353964    4.9249822    4.1333130  
  20 C       3.4402339    4.3034509    3.4263955    5.4469941    4.9317050  
  21 C       3.8654746    3.8640413    3.7588469    3.3959104    3.4137183  
  22 C       3.8605247    4.1348837    3.8405806    4.2610687    3.8730517  
  23 C       3.8168917    4.5542150    3.2033999    5.2089779    4.9080418  
  24 C       2.7984385 *  4.0366715    1.3617242 *  5.3197129    5.3363862  
  25 C       2.4858743 *  3.6762942    2.4090684 *  5.2190715    4.9189786  
  26 C       3.8335081    4.5641875    2.1176270 *  4.9009523    5.2362903  
  27 C       3.6726171    4.6147200    2.1972141 *  5.3529588    5.3715729  
  28 C       3.6904390    3.2659943    3.8178301    2.2550139 *  3.3185547  
  29 C       3.8527367    3.9257211    3.0908692    3.4470633    4.2805246  
  30 C       3.8704061    4.1362846    2.9716304 *  3.8571595    4.2810612  
  31 C       3.5132144    3.9627850    2.2096087 *  4.1623178    4.9879640  
  32 C       3.5007292    4.3433965    1.3835476 *  4.9397644    5.4948169  

               11 C         12 C         13 C         14 C         15 C     

   1 C       4.6442385    3.9985227    4.6234813    3.2428185    2.2171978 *
   2 C       4.2723909    3.3651038    4.6508090    2.1970685 *  1.3933853 *
   3 C       3.3688894    2.2226589 *  4.0171020    2.1675358 *  2.2206866 *
   4 C       4.0243028    3.6569450    3.6625270    3.9339709    3.2539798  
   5 C       2.3659954 *  2.7908537 *  1.4153192 *  4.5525036    4.5817182  
   6 C       2.7890293 *  2.4703145 *  2.4973995 *  3.8448098    3.6601726  
   7 C       2.3760877 *  1.4039926 *  2.8252965 *  3.0695716    3.2438605  
   8 C       3.3636305    4.0005399    2.2101979 *  5.1319922    5.0035727  
   9 C       2.2202451 *  1.3827569 *  3.4266746    2.2064030 *  3.2803781  
  10 C       3.2715032    2.2196510 *  4.2459729    1.3736929 *  2.2383807 *
  11 C       0.0000000    1.3544423 *  1.3606561 *  3.7996169    4.5250670  
  12 C       1.3544423 *  0.0000000    2.4046995 *  3.1205139    3.8186856  
  13 C       1.3606561 *  2.4046995 *  0.0000000    4.5717617    4.9959244  
  14 C       3.7996169    3.1205139    4.5717617    0.0000000    1.3681673 *
  15 C       4.5250670    3.8186856    4.9959244    1.3681673 *  0.0000000  
  16 C       4.9612075    4.5525293    5.1022967    2.4238266 *  1.3594657 *
  17 C       2.1768026 *  2.1677692 *  3.2223695    2.2763495 *  3.4354124  
  18 C       3.1704259    3.0191103    3.8662731    1.4134354 *  2.3863245 *
  19 C       5.3215940    4.8969018    5.2024590    3.4717411    2.2707996 *
  20 C       5.3159678    5.2038222    4.8769296    4.2792094    3.3125146  
  21 C       3.5554197    3.7624376    3.7432718    2.4771392 *  2.7831584 *
  22 C       4.5121082    4.5008830    4.4838384    2.8166129 *  2.3695273 *
  23 C       4.9558695    5.1072901    4.5295351    4.0561841    3.4196972  
  24 C       4.2859017    4.6564665    3.3670525    5.0025854    4.5468216  
  25 C       4.6634064    4.6374532    4.0101398    4.6091260    3.8522356  
  26 C       3.7869891    4.5613565    3.0722749    4.6855467    4.7150250  
  27 C       4.5253831    4.9998966    3.7952255    4.7271800    4.3611057  
  28 C       1.3918279 *  2.2339172 *  2.2081821 *  3.4376234    4.3678504  
  29 C       2.1715396 *  3.2363088    2.1132298 *  4.0845038    4.7430521  
  30 C       3.1336604    3.8419449    2.9510721 *  3.6767393    4.0465077  
  31 C       2.2670449 *  3.4782365    1.3832007 *  4.9803929    5.4229610  
  32 C       3.2768174    4.2563572    2.1897250 *  5.2811963    5.4105007  

               16 C         17 C         18 C         19 C         20 C     

   1 C       2.1336319 *  4.5877087    3.8858891    1.3844871 *  2.2045198 *
   2 C       2.1721709 *  3.8182730    3.1859115    2.2490413 *  3.2760868  
   3 C       3.2247540    3.1270877    3.0221300    3.4563420    4.2502013  
   4 C       3.0417560    4.5918683    4.1833264    2.2581374 *  2.2441049 *
   5 C       4.5233697    3.8982114    4.1451620    4.2791154    3.8731940  
   6 C       3.8112540    3.8512515    3.9030225    3.4478347    3.4402339  
   7 C       3.8951383    3.0730802    3.3607535    3.9139968    4.3034509  
   8 C       4.5559090    4.5633554    4.5303939    4.2353964    3.4263955  
   9 C       4.2319377    1.3761869 *  2.2170795 *  4.9249822    5.4469941  
  10 C       3.4296734    2.2358537 *  2.2321473 *  4.1333130    4.9317050  
  11 C       4.9612075    2.1768026 *  3.1704259    5.3215940    5.3159678  
  12 C       4.5525293    2.1677692 *  3.0191103    4.8969018    5.2038222  
  13 C       5.1022967    3.2223695    3.8662731    5.2024590    4.8769296  
  14 C       2.4238266 *  2.2763495 *  1.4134354 *  3.4717411    4.2792094  
  15 C       1.3594657 *  3.4354124    2.3863245 *  2.2707996 *  3.3125146  
  16 C       0.0000000    4.0667684    2.8385283 *  1.3758319 *  2.2245302 *
  17 C       4.0667684    0.0000000    1.4210136 *  4.9486786    5.2624864  
  18 C       2.8385283 *  1.4210136 *  0.0000000    3.9237547    4.3294803  
  19 C       1.3758319 *  4.9486786    3.9237547    0.0000000    1.3273591 *
  20 C       2.2245302 *  5.2624864    4.3294803    1.3273591 *  0.0000000  
  21 C       2.4942237 *  2.4757198 *  1.4473220 *  3.4420595    3.4532887  
  22 C       1.4156808 *  3.6792632    2.4730745 *  2.2295860 *  2.2461152 *
  23 C       2.2615126 *  4.6818575    3.6929050    2.2082996 *  1.3889877 *
  24 C       3.7983231    5.0017964    4.5722288    3.2655408    2.2224279 *
  25 C       3.1228969    5.1667888    4.5735510    2.2165519 *  1.3734284 *
  26 C       4.0525389    4.0557390    3.6967014    4.2523982    3.4501215  
  27 C       3.4246302    4.7233402    4.0697681    3.2991120    2.2636220 *
  28 C       4.7261451    1.3645822 *  2.3928779 *  5.3935712    5.3906825  
  29 C       4.7078206    2.4318118 *  2.8596987 *  5.2693947    4.9512795  
  30 C       3.6862913    2.8059249 *  2.4722018 *  4.3015007    3.9100486  
  31 C       5.2816975    3.4879962    3.9538148    5.5076850    4.9699324  
  32 C       4.9566606    4.2784371    4.3401387    4.9707478    4.1665205  

               21 C         22 C         23 C         24 C         25 C     

   1 C       3.7772898    2.9930088 *  3.1029398    3.3828380    2.2489465 *
   2 C       3.5784282    3.1597693    3.7977787    4.2944443    3.3995562  
   3 C       3.7744453    3.8590873    4.5708252    4.6745379    4.0409063  
   4 C       3.8771233    3.3295403    3.0417742    2.3811568 *  1.4164739 *
   5 C       3.8355619    4.1032423    3.8647045    2.3673297 *  2.7968573 *
   6 C       3.8654746    3.8605247    3.8168917    2.7984385 *  2.4858743 *
   7 C       3.8640413    4.1348837    4.5542150    4.0366715    3.6762942  
   8 C       3.7588469    3.8405806    3.2033999    1.3617242 *  2.4090684 *
   9 C       3.3959104    4.2610687    5.2089779    5.3197129    5.2190715  
  10 C       3.4137183    3.8730517    4.9080418    5.3363862    4.9189786  
  11 C       3.5554197    4.5121082    4.9558695    4.2859017    4.6634064  
  12 C       3.7624376    4.5008830    5.1072901    4.6564665    4.6374532  
  13 C       3.7432718    4.4838384    4.5295351    3.3670525    4.0101398  
  14 C       2.4771392 *  2.8166129 *  4.0561841    5.0025854    4.6091260  
  15 C       2.7831584 *  2.3695273 *  3.4196972    4.5468216    3.8522356  
  16 C       2.4942237 *  1.4156808 *  2.2615126 *  3.7983231    3.1228969  
  17 C       2.4757198 *  3.6792632    4.6818575    5.0017964    5.1667888  
  18 C       1.4473220 *  2.4730745 *  3.6929050    4.5722288    4.5735510  
  19 C       3.4420595    2.2295860 *  2.2082996 *  3.2655408    2.2165519 *
  20 C       3.4532887    2.2461152 *  1.3889877 *  2.2224279 *  1.3734284 *
  21 C       0.0000000    1.4528375 *  2.4916016 *  3.5921883    3.8082747  
  22 C       1.4528375 *  0.0000000    1.4139176 *  3.1647370    3.0206046  
  23 C       2.4916016 *  1.4139176 *  0.0000000    2.1699320 *  2.1581020 *
  24 C       3.5921883    3.1647370    2.1699320 *  0.0000000    1.3580200 *
  25 C       3.8082747    3.0206046    2.1581020 *  1.3580200 *  0.0000000  
  26 C       2.4905915 *  2.8178651 *  2.4101247 *  2.1802676 *  3.2388297  
  27 C       2.7952547 *  2.3774423 *  1.3597955 *  1.3905948 *  2.2327006 *
  28 C       2.7803602 *  4.0474478    4.7151783    4.5574434    5.0419035  
  29 C       2.5071711 *  3.6997156    4.0677108    3.8211349    4.6074103  
  30 C       1.4518028 *  2.4708415 *  2.8264591 *  3.1751802    3.8867590  
  31 C       3.4635845    4.3246190    4.2772221    3.3027622    4.2881589  
  32 C       3.4569743    3.9193952    3.4701197    2.2721620 *  3.4832095  

               26 C         27 C         28 C         29 C         30 C     

   1 C       4.5646984    3.8309056    5.0220996    5.1494742    4.5176035  
   2 C       4.9797341    4.5451670    4.5524450    5.0047574    4.5340111  
   3 C       5.1310249    5.0196089    3.8412441    4.5906623    4.5142069  
   4 C       3.9066078    3.2501190    4.6343904    4.5896168    4.1487847  
   5 C       3.0251653    3.2205685    3.2415937    3.0391208    3.2973874  
   6 C       3.8335081    3.6726171    3.6904390    3.8527367    3.8704061  
   7 C       4.5641875    4.6147200    3.2659943    3.9257211    4.1362846  
   8 C       2.1176270 *  2.1972141 *  3.8178301    3.0908692    2.9716304 *
   9 C       4.9009523    5.3529588    2.2550139 *  3.4470633    3.8571595  
  10 C       5.2362903    5.3715729    3.3185547    4.2805246    4.2810612  
  11 C       3.7869891    4.5253831    1.3918279 *  2.1715396 *  3.1336604  
  12 C       4.5613565    4.9998966    2.2339172 *  3.2363088    3.8419449  
  13 C       3.0722749    3.7952255    2.2081821 *  2.1132298 *  2.9510721 *
  14 C       4.6855467    4.7271800    3.4376234    4.0845038    3.6767393  
  15 C       4.7150250    4.3611057    4.3678504    4.7430521    4.0465077  
  16 C       4.0525389    3.4246302    4.7261451    4.7078206    3.6862913  
  17 C       4.0557390    4.7233402    1.3645822 *  2.4318118 *  2.8059249 *
  18 C       3.6967014    4.0697681    2.3928779 *  2.8596987 *  2.4722018 *
  19 C       4.2523982    3.2991120    5.3935712    5.2693947    4.3015007  
  20 C       3.4501215    2.2636220 *  5.3906825    4.9512795    3.9100486  
  21 C       2.4905915 *  2.7952547 *  2.7803602 *  2.5071711 *  1.4518028 *
  22 C       2.8178651 *  2.3774423 *  4.0474478    3.6997156    2.4708415 *
  23 C       2.4101247 *  1.3597955 *  4.7151783    4.0677108    2.8264591 *
  24 C       2.1802676 *  1.3905948 *  4.5574434    3.8211349    3.1751802  
  25 C       3.2388297    2.2327006 *  5.0419035    4.6074103    3.8867590  
  26 C       0.0000000    1.3557303 *  3.4228528    2.2720119 *  1.4213278 *
  27 C       1.3557303 *  0.0000000    4.3606535    3.4343142    2.3836899 *
  28 C       3.4228528    4.3606535    0.0000000    1.3633542 *  2.3573474 *
  29 C       2.2720119 *  3.4343142    1.3633542 *  0.0000000    1.4171085 *
  30 C       1.4213278 *  2.3836899 *  2.3573474 *  1.4171085 *  0.0000000  
  31 C       2.2254270 *  3.3164351    2.2867396 *  1.3826070 *  2.2399683 *
  32 C       1.3901009 *  2.2783829 *  3.3110808    2.2147714 *  2.2397239 *

               31 C         32 C     

   1 C       5.2624407    4.9394235  
   2 C       5.3796168    5.3677177  
   3 C       4.9545427    5.2555964  
   4 C       4.3577101    3.9513458  
   5 C       2.2914028 *  2.2781206 *
   6 C       3.5132144    3.5007292  
   7 C       3.9627850    4.3433965  
   8 C       2.2096087 *  1.3835476 *
   9 C       4.1623178    4.9397644  
  10 C       4.9879640    5.4948169  
  11 C       2.2670449 *  3.2768174  
  12 C       3.4782365    4.2563572  
  13 C       1.3832007 *  2.1897250 *
  14 C       4.9803929    5.2811963  
  15 C       5.4229610    5.4105007  
  16 C       5.2816975    4.9566606  
  17 C       3.4879962    4.2784371  
  18 C       3.9538148    4.3401387  
  19 C       5.5076850    4.9707478  
  20 C       4.9699324    4.1665205  
  21 C       3.4635845    3.4569743  
  22 C       4.3246190    3.9193952  
  23 C       4.2772221    3.4701197  
  24 C       3.3027622    2.2721620 *
  25 C       4.2881589    3.4832095  
  26 C       2.2254270 *  1.3901009 *
  27 C       3.3164351    2.2783829 *
  28 C       2.2867396 *  3.3110808  
  29 C       1.3826070 *  2.2147714 *
  30 C       2.2399683 *  2.2397239 *
  31 C       0.0000000    1.3234476 *
  32 C       1.3234476 *  0.0000000  

  * ... LESS THAN  3.000


 TOTAL NUMBER OF BASIS SET SHELLS             =   32
 NUMBER OF CARTESIAN GAUSSIAN BASIS FUNCTIONS =  128
 NUMBER OF ELECTRONS                          =  128
 CHARGE OF MOLECULE                           =    0
 SPIN MULTIPLICITY                            =    1
 NUMBER OF OCCUPIED ORBITALS (ALPHA)          =   64
 NUMBER OF OCCUPIED ORBITALS (BETA )          =   64
 TOTAL NUMBER OF ATOMS                        =   32
 THE NUCLEAR REPULSION ENERGY IS     3165.2106929483

 THE PARAMETERS USED IN THIS CALCULATION ARE DESCRIBED IN:

  C: (PM3): J. J. P. STEWART, J. COMP. CHEM. 10, 209 (1989).                    

 THERE ARE   32 HEAVY AND    0 LIGHT ATOMS,
 YIELDING A TOTAL OF     49600 MOPAC 2E- INTEGRALS.

     $CONTRL OPTIONS
     ---------------
 SCFTYP=RHF          RUNTYP=OPTIMIZE     EXETYP=RUN     
 MPLEVL=       0     CITYP =NONE         CCTYP =NONE         VBTYP =NONE    
 DFTTYP=NONE         TDDFT =NONE    
 MULT  =       1     ICHARG=       0     NZVAR =       0     COORD =UNIQUE  
 PP    =NONE         RELWFN=NONE         LOCAL =NONE         NUMGRD=       F
 ISPHER=      -1     NOSYM =       0     MAXIT =     200     UNITS =ANGS    
 PLTORB=       F     MOLPLT=       F     AIMPAC=       F     FRIEND=        
 NPRINT=       7     IREST =       0     GEOM  =INPUT   
 NORMF =       0     NORMP =       0     ITOL  =      20     ICUT  =       9
 INTTYP=BEST         GRDTYP=BEST         QMTTOL= 1.0E-06

     $SYSTEM OPTIONS
     ---------------
  REPLICATED MEMORY=    10000000 WORDS (ON EVERY NODE).
 DISTRIBUTED MEMDDI=           0 MILLION WORDS IN AGGREGATE,
 MEMDDI DISTRIBUTED OVER   2 PROCESSORS IS           0 WORDS/PROCESSOR.
 TOTAL MEMORY REQUESTED ON EACH PROCESSOR=    10000000 WORDS.
 TIMLIM=      525600.00 MINUTES, OR     365.0 DAYS.
 PARALL= T  BALTYP=  DLB     KDIAG=    0  COREFL= F
 MXSEQ2=     300 MXSEQ3=     150  mem10=         0  mem22=         0

          ----------------
          PROPERTIES INPUT
          ----------------

     MOMENTS            FIELD           POTENTIAL          DENSITY
 IEMOM =       1   IEFLD =       0   IEPOT =       0   IEDEN =       0
 WHERE =COMASS     WHERE =NUCLEI     WHERE =NUCLEI     WHERE =NUCLEI  
 OUTPUT=BOTH       OUTPUT=BOTH       OUTPUT=BOTH       OUTPUT=BOTH    
 IEMINT=       0   IEFINT=       0                     IEDINT=       0
                                                       MORB  =       0
          EXTRAPOLATION IN EFFECT
          SOSCF IN EFFECT
 ORBITAL PRINTING OPTION: NPREO=     1   128     2     1

     -------------------------------
     INTEGRAL TRANSFORMATION OPTIONS
     -------------------------------
     NWORD  =            0
     CUTTRF = 1.0E-09     MPTRAN =       0
     DIRTRF =       T     AOINTS =DUP     

          ----------------------
          INTEGRAL INPUT OPTIONS
          ----------------------
 NOPK  =       1 NORDER=       0 SCHWRZ=       T

     ------------------------------------------
     THE POINT GROUP IS C1 , NAXIS= 0, ORDER= 1
     ------------------------------------------

     DIMENSIONS OF THE SYMMETRY SUBSPACES ARE
 A   =  128

 ..... DONE SETTING UP THE RUN .....
 CPU     0: STEP CPU TIME=     0.03 TOTAL CPU TIME=          0.0 (      0.0 MIN)
 TOTAL WALL CLOCK TIME=          0.1 SECONDS, CPU UTILIZATION IS    51.23%


          -----------------------------
          STATIONARY POINT LOCATION RUN
          -----------------------------

 OBTAINING INITIAL HESSIAN, HESS=GUESS   
 CARTESIAN COORDINATE OPTIMIZATION USING BADGER'S RULE FORCE CONSTANT GUESS

          PARAMETERS CONTROLLING GEOMETRY SEARCH ARE
          METHOD =QA                  UPHESS =BFGS    
          NNEG   =         0          NFRZ   =         0
          NSTEP  =       100          IFOLOW =         1
          HESS   =GUESS               RESTAR =         F
          IHREP  =         0          HSSEND =         F
          NPRT   =         0          NPUN   =         0
          OPTTOL = 1.000E-03          RMIN   = 1.500E-03
          RMAX   = 1.000E-01          RLIM   = 7.000E-02
          DXMAX  = 3.000E-01          PURIFY =         F
          MOVIE  =         F          TRUPD  =         T
          TRMAX  = 5.000E-01          TRMIN  = 5.000E-02
          ITBMAT =         5          STPT   =         F
          STSTEP = 1.000E-02          PROJCT=          T

 BEGINNING GEOMETRY SEARCH POINT NSERCH=   0 ...

 COORDINATES OF ALL ATOMS ARE (ANGS)
   ATOM   CHARGE       X              Y              Z
 ------------------------------------------------------------
 C           6.0   1.5918000000   1.6858000000  -1.0719000000
 C           6.0   0.5222000000   2.4223000000  -0.6784000000
 C           6.0  -0.7591000000   2.1997000000  -1.0734000000
 C           6.0   1.3640000000   0.4356000000  -1.6922000000
 C           6.0  -0.2899000000  -1.3674000000  -1.6639000000
 C           6.0   0.0082000000   0.0169000000  -1.9589000000
 C           6.0  -1.0488000000   0.9650000000  -1.6907000000
 C           6.0   0.6544000000  -2.2200000000  -1.0475000000
 C           6.0  -2.4777000000   1.3655000000   0.0059000000
 C           6.0  -1.5898000000   2.3650000000   0.0077000000
 C           6.0  -2.3450000000  -0.7451000000  -0.6703000000
 C           6.0  -2.2396000000   0.5419000000  -1.0790000000
 C           6.0  -1.5047000000  -1.7475000000  -1.0451000000
 C           6.0  -0.7609000000   2.2239000000   1.0940000000
 C           6.0   0.5319000000   2.4615000000   0.7144000000
 C           6.0   1.6064000000   1.7045000000   1.0616000000
 C           6.0  -2.2890000000   0.5367000000   1.0882000000
 C           6.0  -1.0671000000   0.9700000000   1.6700000000
 C           6.0   2.4461000000   1.4730000000  -0.0034000000
 C           6.0   2.8446000000   0.2070000000  -0.0214000000
 C           6.0  -0.0134000000   0.0064000000   1.9065000000
 C           6.0   1.3477000000   0.4373000000   1.6373000000
 C           6.0   2.2872000000  -0.4521000000   1.0668000000
 C           6.0   1.8411000000  -1.6646000000  -0.6766000000
 C           6.0   2.2901000000  -0.4519000000  -1.0913000000
 C           6.0   0.6689000000  -2.2381000000   1.0700000000
 C           6.0   1.8580000000  -1.6931000000   0.7136000000
 C           6.0  -2.4043000000  -0.7722000000   0.7200000000
 C           6.0  -1.5569000000  -1.7822000000   1.0672000000
 C           6.0  -0.3196000000  -1.3862000000   1.6333000000
 C           6.0  -1.2489000000  -2.6113000000   0.0045000000
 C           6.0   0.0469000000  -2.8804000000   0.0056000000

          ********************
          1 ELECTRON INTEGRALS
          ********************

          **************************
          1 AND 2 ELECTRON INTEGRALS
          **************************

 MOPAC ONE- AND TWO-ELECTRON INTEGRALS REQUIRE     66112 WORDS.
 ...... END OF ONE- AND TWO-ELECTRON INTEGRALS......
 CPU     0: STEP CPU TIME=     0.00 TOTAL CPU TIME=          0.0 (      0.0 MIN)
 TOTAL WALL CLOCK TIME=          0.1 SECONDS, CPU UTILIZATION IS    49.60%
 ...... END OF ONE-ELECTRON INTEGRALS ......
 CPU     0: STEP CPU TIME=     0.00 TOTAL CPU TIME=          0.0 (      0.0 MIN)
 TOTAL WALL CLOCK TIME=          0.1 SECONDS, CPU UTILIZATION IS    49.60%

          -------------
          GUESS OPTIONS
          -------------
          GUESS =HUCKEL            NORB  =       0          NORDER=       0
          MIX   =       F          PRTMO =       F          PUNMO =       F
          TOLZ  = 1.0E-08          TOLE  = 1.0E-05
          SYMDEN=       F          PURIFY=       F

 INITIAL GUESS ORBITALS GENERATED BY HUCKEL   ROUTINE.

 SYMMETRIES FOR INITIAL GUESS ORBITALS FOLLOW.   BOTH SET(S).
    64 ORBITALS ARE OCCUPIED (    0 CORE ORBITALS).
     1=A        2=A        3=A        4=A        5=A        6=A        7=A   
     8=A        9=A       10=A       11=A       12=A       13=A       14=A   
    15=A       16=A       17=A       18=A       19=A       20=A       21=A   
    22=A       23=A       24=A       25=A       26=A       27=A       28=A   
    29=A       30=A       31=A       32=A       33=A       34=A       35=A   
    36=A       37=A       38=A       39=A       40=A       41=A       42=A   
    43=A       44=A       45=A       46=A       47=A       48=A       49=A   
    50=A       51=A       52=A       53=A       54=A       55=A       56=A   
    57=A       58=A       59=A       60=A       61=A       62=A       63=A   
    64=A       65=A       66=A       67=A       68=A       69=A       70=A   
    71=A       72=A       73=A       74=A   
 ...... END OF INITIAL ORBITAL SELECTION ......
 CPU     0: STEP CPU TIME=     0.02 TOTAL CPU TIME=          0.0 (      0.0 MIN)
 TOTAL WALL CLOCK TIME=          0.1 SECONDS, CPU UTILIZATION IS    60.10%

          --------------------------
               R-PM3 SCF CALCULATION
          --------------------------

     NUCLEAR ENERGY =      1256.0236827365
     MAXIT =  200     NPUNCH=    2
     EXTRAP=T  DAMP=F  SHIFT=F  RSTRCT=F  DIIS=F  DEM=F  SOSCF=T
     DENSITY MATRIX CONV=  2.00E-05
     SOSCF WILL OPTIMIZE    4096 ORBITAL ROTATIONS, SOGTOL=   0.250
     MEMORY REQUIRED FOR RHF ITERS=    182976 WORDS.

                                                                                   NONZERO     BLOCKS
 ITER EX DEM     TOTAL ENERGY        E CHANGE  DENSITY CHANGE     ORB. GRAD      INTEGRALS    SKIPPED
   1  0  0     -136.6891785044  -136.6891785044   0.166870195   0.000000000              0          0
          ---------------START SECOND ORDER SCF---------------
   2  1  0     -137.6838321955    -0.9946536911   0.050416710   0.024361727              0          0
   3  2  0     -137.7638643054    -0.0800321099   0.028481945   0.006825285              0          0
   4  3  0     -137.7727660275    -0.0089017221   0.012778031   0.008092966              0          0
   5  4  0     -137.7751198929    -0.0023538654   0.003033582   0.001436065              0          0
   6  5  0     -137.7753362947    -0.0002164018   0.004600100   0.000754537              0          0
   7  6  0     -137.7754164459    -0.0000801512   0.002115090   0.000243752              0          0
   8  7  0     -137.7754274279    -0.0000109820   0.001452951   0.000166175              0          0
   9  8  0     -137.7754327451    -0.0000053171   0.000915720   0.000111400              0          0
  10  9  0     -137.7754361117    -0.0000033667   0.000796870   0.000075398              0          0
  11 10  0     -137.7754374157    -0.0000013040   0.000446686   0.000041777              0          0
  12 11  0     -137.7754376775    -0.0000002618   0.000307855   0.000031138              0          0
  13 12  0     -137.7754377789    -0.0000001014   0.000066144   0.000009042              0          0
  14 13  0     -137.7754377958    -0.0000000168   0.000029062   0.000005362              0          0
  15 14  0     -137.7754378004    -0.0000000046   0.000020112   0.000003367              0          0
  16 15  0     -137.7754378020    -0.0000000016   0.000016025   0.000001906              0          0

          -----------------
          DENSITY CONVERGED
          -----------------
     TIME TO FORM FOCK OPERATORS=       0.0 SECONDS (       0.0 SEC/ITER)
     FOCK TIME ON FIRST ITERATION=       0.0, LAST ITERATION=       0.0
     TIME TO SOLVE SCF EQUATIONS=       0.0 SECONDS (       0.0 SEC/ITER)

 FINAL R-PM3 ENERGY IS     -137.7754378020 AFTER  16 ITERATIONS

 HEAT OF FORMATION IS      1092.88718 KCAL/MOL
 

          ------------
          EIGENVECTORS
          ------------

                      1          2          3          4          5
                   -1.9640    -1.7565    -1.7545    -1.4909    -1.4415
                     A          A          A          A          A   
    1  C  1  S    0.172559  -0.204969  -0.134274   0.143007  -0.225026
    2  C  1  X   -0.018478   0.026956  -0.027482  -0.032421   0.025891
    3  C  1  Y   -0.027273   0.007842   0.045407  -0.045415  -0.021621
    4  C  1  Z    0.039348  -0.056697  -0.035789  -0.028949  -0.075373
    5  C  2  S    0.177131  -0.246957   0.011310   0.084543  -0.206155
    6  C  2  X   -0.008853   0.007653  -0.062428  -0.009474  -0.071536
    7  C  2  Y   -0.040934   0.046027   0.011375  -0.037357   0.040004
    8  C  2  Z    0.027135  -0.044804   0.001954  -0.054520  -0.042457
    9  C  3  S    0.171875  -0.194343   0.151461   0.148031   0.041169
   10  C  3  X    0.006073  -0.024718  -0.040269   0.009846  -0.087124
   11  C  3  Y   -0.032702   0.016437  -0.031742  -0.056156  -0.027382
   12  C  3  Z    0.039417  -0.054078   0.040859  -0.027560   0.011229
   13  C  4  S    0.158432  -0.089601  -0.140681   0.257712  -0.026872
   14  C  4  X   -0.004117  -0.006900  -0.037483  -0.041982   0.008954
   15  C  4  Y   -0.001447  -0.041429   0.013450  -0.013796  -0.068351
   16  C  4  Z    0.042687  -0.032111  -0.050924   0.025455  -0.011188
   17  C  5  S    0.160644   0.162634  -0.006429   0.256343  -0.054805
   18  C  5  X    0.000778  -0.010215  -0.044461   0.008982   0.055582
   19  C  5  Y    0.003240  -0.038493   0.011114   0.043459   0.021141
   20  C  5  Z    0.042597   0.059284  -0.002256   0.022972  -0.025006
   21  C  6  S    0.142912  -0.004368   0.000129   0.313224  -0.002579
   22  C  6  X    0.000089  -0.012428  -0.049523  -0.000719   0.001210
   23  C  6  Y    0.000087  -0.048281   0.012775   0.000813  -0.005844
   24  C  6  Z    0.033643  -0.000753   0.000063   0.047860  -0.000432
   25  C  7  S    0.158345  -0.079793   0.146785   0.263691   0.075080
   26  C  7  X    0.003144  -0.013658  -0.038341   0.030625  -0.045161
   27  C  7  Y   -0.003049  -0.040458   0.006482  -0.029639   0.015939
   28  C  7  Z    0.042771  -0.028543   0.053335   0.027597   0.035394
   29  C  8  S    0.175552   0.219907  -0.110437   0.141972   0.076952
   30  C  8  X   -0.014149  -0.042450  -0.033630  -0.019904   0.096086
   31  C  8  Y    0.029693   0.011784  -0.024009   0.050911   0.031000
   32  C  8  Z    0.039725   0.059673  -0.030736  -0.028567   0.029672
   33  C  9  S    0.175219  -0.085845   0.273902   0.001008   0.242624
   34  C  9  X    0.052546  -0.042598   0.071709   0.000633   0.063299
   35  C  9  Y   -0.024358  -0.026504  -0.040084  -0.000663  -0.005625
   36  C  9  Z    0.000182   0.000100   0.000634  -0.067019   0.001603
   37  C 10  S    0.174116  -0.180416   0.222906  -0.003133   0.173921
   38  C 10  X    0.029758  -0.051606   0.009340  -0.002277  -0.036976
   39  C 10  Y   -0.050530   0.032649  -0.075232  -0.000911  -0.074940
   40  C 10  Z   -0.000038  -0.000105   0.000087  -0.066161   0.001026
   41  C 11  S    0.178947   0.130110   0.210893   0.092143  -0.075969
   42  C 11  X    0.039837   0.038982   0.026918   0.037149  -0.038969
   43  C 11  Y    0.012238  -0.044679   0.043724   0.014626   0.096799
   44  C 11  Z    0.027601   0.024577   0.038415  -0.052978  -0.016693
   45  C 12  S    0.172196  -0.016903   0.243690   0.155699   0.140606
   46  C 12  X    0.032974  -0.012902   0.030240   0.057148   0.013106
   47  C 12  Y   -0.002894  -0.049173   0.005372  -0.005822   0.059491
   48  C 12  Z    0.039402  -0.002953   0.067124  -0.025248   0.044715
   49  C 13  S    0.175840   0.229261   0.093684   0.142267  -0.211988
   50  C 13  X    0.025030   0.041181  -0.023737   0.039312  -0.009444
   51  C 13  Y    0.020614  -0.004904   0.035626   0.038789   0.011798
   52  C 13  Z    0.039904   0.062660   0.026487  -0.029186  -0.069865
   53  C 14  S    0.168989  -0.192852   0.149641  -0.152721   0.044233
   54  C 14  X    0.005994  -0.024485  -0.039494  -0.013080  -0.086192
   55  C 14  Y   -0.032665   0.017345  -0.032160   0.052659  -0.029272
   56  C 14  Z   -0.039838   0.054321  -0.040937  -0.020925  -0.010439
   57  C 15  S    0.172711  -0.242613   0.011249  -0.103967  -0.202120
   58  C 15  X   -0.009007   0.008173  -0.060026   0.008051  -0.069097
   59  C 15  Y   -0.042207   0.049049   0.010775   0.039574   0.042444
   60  C 15  Z   -0.028085   0.045729  -0.001720  -0.044380   0.044656
   61  C 16  S    0.171413  -0.205885  -0.133098  -0.151471  -0.224444
   62  C 16  X   -0.019227   0.028335  -0.026292   0.033872   0.026617
   63  C 16  Y   -0.027271   0.008530   0.045517   0.041420  -0.021706
   64  C 16  Z   -0.039587   0.056620   0.036189  -0.022088   0.075853
   65  C 17  S    0.168891  -0.013884   0.242253  -0.145011   0.142976
   66  C 17  X    0.033424  -0.012284   0.032732  -0.053253   0.016945
   67  C 17  Y   -0.003162  -0.048513   0.004750   0.005602   0.060105
   68  C 17  Z   -0.039450   0.002926  -0.066845  -0.023303  -0.043845
   69  C 18  S    0.157900  -0.079666   0.150185  -0.252558   0.085582
   70  C 18  X    0.002763  -0.014047  -0.038433  -0.030935  -0.044481
   71  C 18  Y   -0.002402  -0.041521   0.006693   0.025714   0.015854
   72  C 18  Z   -0.042129   0.028119  -0.052938   0.025167  -0.036180
   73  C 19  S    0.174538  -0.194347  -0.209671  -0.005392  -0.192786
   74  C 19  X   -0.048312   0.063008   0.035296   0.002548   0.084068
   75  C 19  Y   -0.034007   0.012752   0.064741  -0.001437  -0.039598
   76  C 19  Z   -0.000015  -0.000281   0.000261  -0.063643   0.000064
   77  C 20  S    0.175234  -0.105116  -0.267145   0.002396   0.068141
   78  C 20  X   -0.058945   0.034105   0.081357  -0.000988  -0.013083
   79  C 20  Y   -0.000226  -0.040445   0.009483  -0.001468  -0.108076
   80  C 20  Z    0.000139  -0.000111  -0.000171  -0.063958   0.000856
   81  C 21  S    0.143431  -0.001470   0.003128  -0.301002   0.008354
   82  C 21  X   -0.000219  -0.012666  -0.050486   0.000425   0.002244
   83  C 21  Y    0.000098  -0.050087   0.013278  -0.002018  -0.005017
   84  C 21  Z   -0.032448   0.000179  -0.000417   0.042559  -0.001119
   85  C 22  S    0.160311  -0.091188  -0.141800  -0.252066  -0.019239
   86  C 22  X   -0.002610  -0.007972  -0.039824   0.037994   0.007180
   87  C 22  Y   -0.000951  -0.043866   0.013692   0.010260  -0.073481
   88  C 22  Z   -0.041892   0.031870   0.050150   0.022928   0.010810
   89  C 23  S    0.171960  -0.032724  -0.242967  -0.143677   0.173157
   90  C 23  X   -0.031388  -0.007230   0.026796   0.050960  -0.020314
   91  C 23  Y    0.010408  -0.051161  -0.012820  -0.016383  -0.079486
   92  C 23  Z   -0.039896   0.008328   0.067157  -0.024169  -0.057583
   93  C 24  S    0.178694   0.112397  -0.220435   0.090757   0.285709
   94  C 24  X   -0.031363  -0.053209   0.010792  -0.027316  -0.007148
   95  C 24  Y    0.028610  -0.026967  -0.050313   0.027298   0.040742
   96  C 24  Z    0.027739   0.021352  -0.040092  -0.051356   0.061668
   97  C 25  S    0.171749  -0.034353  -0.242614   0.149544   0.164340
   98  C 25  X   -0.031343  -0.006829   0.026526  -0.052555  -0.017290
   99  C 25  Y    0.011341  -0.050195  -0.014322   0.016854  -0.076436
  100  C 25  Z    0.040316  -0.008158  -0.068063  -0.023488   0.060198
  101  C 26  S    0.172996   0.218372  -0.110231  -0.144531   0.085964
  102  C 26  X   -0.013939  -0.042059  -0.033131   0.020426   0.095326
  103  C 26  Y    0.029784   0.013055  -0.024432  -0.048032   0.033927
  104  C 26  Z   -0.040355  -0.059888   0.031215  -0.022543  -0.029072
  105  C 27  S    0.174934   0.112834  -0.216108  -0.093288   0.288501
  106  C 27  X   -0.032502  -0.053296   0.013413   0.029209  -0.012412
  107  C 27  Y    0.029203  -0.024323  -0.050717  -0.025484   0.045088
  108  C 27  Z   -0.028827  -0.021334   0.041354  -0.045177  -0.060097
  109  C 28  S    0.172951   0.128873   0.205712  -0.094481  -0.075811
  110  C 28  X    0.041799   0.041141   0.031193  -0.036837  -0.039675
  111  C 28  Y    0.012643  -0.041211   0.043041  -0.010493   0.092628
  112  C 28  Z   -0.028266  -0.024373  -0.038674  -0.044990   0.017446
  113  C 29  S    0.172003   0.227570   0.095371  -0.143962  -0.211346
  114  C 29  X    0.025941   0.043334  -0.021167  -0.038251  -0.012614
  115  C 29  Y    0.021893  -0.001006   0.036187  -0.035618   0.008769
  116  C 29  Z   -0.040029  -0.062282  -0.026410  -0.022388   0.070411
  117  C 30  S    0.161555   0.169485  -0.003218  -0.248560  -0.052124
  118  C 30  X    0.000493  -0.010363  -0.045732  -0.008366   0.059997
  119  C 30  Y    0.002169  -0.039198   0.011515  -0.038269   0.023895
  120  C 30  Z   -0.041955  -0.059196   0.001479   0.021416   0.025710
  121  C 31  S    0.173905   0.281426   0.042615  -0.006429  -0.249335
  122  C 31  X    0.030226   0.055320  -0.027450  -0.000167  -0.002110
  123  C 31  Y    0.052395   0.072236   0.029408  -0.001135  -0.072966
  124  C 31  Z    0.000459   0.001065   0.000550  -0.059566  -0.000596
  125  C 32  S    0.174793   0.277803  -0.061007  -0.005516  -0.060188
  126  C 32  X   -0.005962  -0.024152  -0.036573   0.000416   0.104678
  127  C 32  Y    0.059755   0.086009  -0.020994  -0.001046  -0.008892
  128  C 32  Z    0.000029   0.000282  -0.000018  -0.060082   0.001333

                      6          7          8          9         10
                   -1.4407    -1.2484    -1.2434    -1.2289    -1.1611
                     A          A          A          A          A   
    1  C  1  S    0.035833  -0.094182  -0.238882  -0.014377  -0.195412
    2  C  1  X    0.070032  -0.030706   0.039110  -0.053232   0.015820
    3  C  1  Y   -0.062733   0.061364   0.048610  -0.034908  -0.049857
    4  C  1  Z    0.008091   0.014511   0.034188  -0.071533  -0.079936
    5  C  2  S   -0.211706   0.040879  -0.152341  -0.057928  -0.063157
    6  C  2  X    0.078428  -0.040957   0.003341  -0.000347  -0.165427
    7  C  2  Y    0.007677  -0.006394   0.051121  -0.026392   0.038426
    8  C  2  Z   -0.044078  -0.023823   0.081226  -0.056059  -0.014121
    9  C  3  S   -0.220821   0.204523  -0.162209  -0.032516   0.182601
   10  C  3  X   -0.035869  -0.035753  -0.040834   0.035950  -0.022778
   11  C  3  Y   -0.010094  -0.070726   0.028112  -0.051426   0.016409
   12  C  3  Z   -0.074766  -0.030664   0.017493  -0.074474   0.070345
   13  C  4  S    0.077716  -0.218430  -0.217385   0.209691   0.012895
   14  C  4  X    0.048285  -0.051565  -0.018964  -0.110601   0.023320
   15  C  4  Y   -0.005132   0.046617  -0.066436  -0.031833  -0.053173
   16  C  4  Z    0.035604  -0.041708  -0.042875  -0.024385   0.002727
   17  C  5  S   -0.059171  -0.088061   0.308451   0.202314   0.020023
   18  C  5  X   -0.040034  -0.074433  -0.033344   0.026677  -0.055416
   19  C  5  Y    0.043833   0.032722  -0.042411   0.112791   0.005828
   20  C  5  Z   -0.026741  -0.016983   0.056659  -0.026630   0.003382
   21  C  6  S   -0.001252   0.000860   0.009058   0.393359   0.013476
   22  C  6  X   -0.003288  -0.111551  -0.060153   0.003094  -0.002843
   23  C  6  Y   -0.003817   0.059147  -0.110654  -0.000118  -0.000998
   24  C  6  Z   -0.000195   0.000205   0.001808   0.041786   0.001372
   25  C  7  S   -0.023364   0.303534  -0.070151   0.197237   0.025506
   26  C  7  X   -0.036778  -0.050688  -0.044330   0.087215   0.028699
   27  C  7  Y   -0.058032   0.015742  -0.072854  -0.077453   0.044452
   28  C  7  Z   -0.009800   0.058944  -0.015324  -0.026821   0.005524
   29  C  8  S   -0.212250  -0.160646   0.206353  -0.025885  -0.188268
   30  C  8  X    0.016648  -0.012094  -0.070511  -0.001906  -0.053648
   31  C  8  Y    0.006030  -0.048675   0.036401   0.062495   0.014058
   32  C  8  Z   -0.069071   0.025049  -0.032321  -0.069940  -0.081055
   33  C  9  S    0.077638  -0.005164   0.000102  -0.165480  -0.131001
   34  C  9  X   -0.031805  -0.000703  -0.001465  -0.027411   0.042126
   35  C  9  Y   -0.105532  -0.003033  -0.003655  -0.002547   0.139358
   36  C  9  Z    0.002208  -0.149483   0.015807   0.004541  -0.005414
   37  C 10  S   -0.188885  -0.012866  -0.008672  -0.169782   0.210532
   38  C 10  X   -0.093324  -0.002340  -0.002809  -0.003890   0.093710
   39  C 10  Y   -0.002862   0.000424   0.000544   0.028213   0.012098
   40  C 10  Z    0.000710  -0.138265   0.056338   0.003922  -0.001659
   41  C 11  S    0.283638   0.108692   0.116013  -0.068073  -0.056708
   42  C 11  X    0.020130   0.025419   0.047132   0.023460   0.050675
   43  C 11  Y    0.036932   0.044110  -0.013566   0.007517  -0.159881
   44  C 11  Z    0.061713  -0.059153  -0.064350  -0.053160  -0.017234
   45  C 12  S    0.168393   0.262721   0.045395  -0.031018  -0.176070
   46  C 12  X   -0.016999   0.074241   0.000255   0.054660   0.039028
   47  C 12  Y   -0.075913   0.019376  -0.057928  -0.027481   0.040080
   48  C 12  Z    0.061368  -0.033314  -0.005429  -0.071980  -0.081256
   49  C 13  S    0.068158   0.022741   0.259484  -0.035369   0.186200
   50  C 13  X   -0.075492  -0.035694   0.071033   0.029459  -0.007854
   51  C 13  Y    0.068379   0.043365   0.032107   0.055734  -0.027834
   52  C 13  Z    0.027448  -0.005765  -0.042633  -0.072334   0.070380
   53  C 14  S   -0.218128  -0.215846   0.146846  -0.023917   0.183601
   54  C 14  X   -0.036127   0.037966   0.039934   0.031961  -0.017995
   55  C 14  Y   -0.009510   0.066119  -0.030716  -0.054019   0.015567
   56  C 14  Z    0.075285  -0.019674   0.022474   0.074285  -0.069970
   57  C 15  S   -0.209691  -0.043550   0.148193  -0.058061  -0.054980
   58  C 15  X    0.076219   0.049624   0.005166  -0.002095  -0.160177
   59  C 15  Y    0.011863   0.003065  -0.053403  -0.023802   0.036169
   60  C 15  Z    0.044669  -0.020220   0.075498   0.055755   0.019392
   61  C 16  S    0.032903   0.102578   0.241242  -0.024438  -0.181790
   62  C 16  X    0.069390   0.028677  -0.039065  -0.052011   0.014163
   63  C 16  Y   -0.062993  -0.060380  -0.049318  -0.031504  -0.053014
   64  C 16  Z   -0.008707   0.010084   0.032103   0.069641   0.082128
   65  C 17  S    0.180936  -0.250072  -0.034859  -0.016584  -0.198569
   66  C 17  X   -0.011507  -0.070354   0.000819   0.056202   0.031786
   67  C 17  Y   -0.076313  -0.024313   0.051364  -0.027590   0.038496
   68  C 17  Z   -0.060409  -0.029837  -0.006864   0.073140   0.079496
   69  C 18  S   -0.014463  -0.294469   0.076786   0.212492   0.015983
   70  C 18  X   -0.039536   0.049398   0.044430   0.085431   0.039162
   71  C 18  Y   -0.061930  -0.022375   0.063936  -0.080827   0.049250
   72  C 18  Z    0.008436   0.055302  -0.013047   0.024864  -0.002604
   73  C 19  S    0.172639   0.004071   0.002268  -0.161245  -0.131079
   74  C 19  X    0.003762  -0.002451  -0.001490   0.011038   0.099859
   75  C 19  Y   -0.085382   0.001725   0.001393   0.027268  -0.104711
   76  C 19  Z   -0.000980   0.088655   0.118202  -0.001932   0.003288
   77  C 20  S    0.245046  -0.007077  -0.005780  -0.170648   0.209653
   78  C 20  X   -0.061918   0.001920   0.001292   0.025944  -0.036115
   79  C 20  Y    0.020036   0.002484   0.001186  -0.009662  -0.089903
   80  C 20  Z   -0.000513   0.117797   0.091065  -0.002441   0.002896
   81  C 21  S    0.005504   0.006428   0.005055   0.406199   0.018629
   82  C 21  X   -0.007247   0.108387   0.057819  -0.003065   0.004559
   83  C 21  Y   -0.004611  -0.058952   0.108353  -0.001961   0.001825
   84  C 21  Z   -0.000829  -0.001599  -0.000486  -0.039689  -0.001812
   85  C 22  S    0.077340   0.220538   0.224327   0.203052   0.032542
   86  C 22  X    0.048415   0.051295   0.017494  -0.113242   0.023920
   87  C 22  Y   -0.005915  -0.044585   0.066047  -0.035348  -0.053302
   88  C 22  Z   -0.034374  -0.038549  -0.038925   0.028287  -0.004820
   89  C 23  S    0.143012   0.236748   0.100548  -0.031989   0.189941
   90  C 23  X    0.012157  -0.061852  -0.013386  -0.062686   0.022789
   91  C 23  Y    0.059743   0.014962   0.067117  -0.002392   0.012599
   92  C 23  Z   -0.045838   0.032969   0.013566   0.074098  -0.068311
   93  C 24  S   -0.070588  -0.149664   0.036016  -0.064269  -0.056651
   94  C 24  X    0.076355   0.029238  -0.039945  -0.021589   0.115332
   95  C 24  Y    0.071994  -0.044220  -0.022786   0.013373   0.124775
   96  C 24  Z   -0.016211   0.083731  -0.022298  -0.055484  -0.017302
   97  C 25  S    0.146460  -0.244746  -0.105178  -0.028609   0.181427
   98  C 25  X    0.012064   0.060395   0.009954  -0.062816   0.025528
   99  C 25  Y    0.059522  -0.016454  -0.067176  -0.000080   0.007584
  100  C 25  Z    0.046488   0.028295   0.009837  -0.075044   0.072326
  101  C 26  S   -0.208817   0.159483  -0.203509  -0.011611  -0.193613
  102  C 26  X    0.015059   0.015423   0.068489  -0.007274  -0.051957
  103  C 26  Y    0.004985   0.049676  -0.030938   0.063519   0.012648
  104  C 26  Z    0.069788   0.022491  -0.024645   0.070511   0.081012
  105  C 27  S   -0.073444   0.154899  -0.041688  -0.059425  -0.060700
  106  C 27  X    0.074998  -0.032567   0.037946  -0.022396   0.114775
  107  C 27  Y    0.068041   0.043109   0.022882   0.012327   0.122908
  108  C 27  Z    0.015745   0.075131  -0.018226   0.057774   0.016787
  109  C 28  S    0.286811  -0.103053  -0.114208  -0.055020  -0.063460
  110  C 28  X    0.030062  -0.023445  -0.046321   0.024102   0.045910
  111  C 28  Y    0.039211  -0.039723   0.021689   0.007612  -0.160095
  112  C 28  Z   -0.058923  -0.051326  -0.055750   0.060079   0.012679
  113  C 29  S    0.081266  -0.025585  -0.259788  -0.018585   0.184931
  114  C 29  X   -0.071260   0.031927  -0.068290   0.031216  -0.001638
  115  C 29  Y    0.070630  -0.037162  -0.027183   0.055867  -0.028265
  116  C 29  Z   -0.026376  -0.003608  -0.032091   0.073821  -0.071740
  117  C 30  S   -0.050255   0.087364  -0.295685   0.220144   0.019706
  118  C 30  X   -0.045787   0.073512   0.033346   0.025129  -0.058388
  119  C 30  Y    0.045659  -0.027717   0.047327   0.112839   0.005595
  120  C 30  Z    0.024746  -0.013830   0.051262   0.025401  -0.003959
  121  C 31  S   -0.065375  -0.005763  -0.009282  -0.165915   0.209249
  122  C 31  X   -0.097537  -0.001531   0.001490  -0.022939  -0.058026
  123  C 31  Y    0.032319  -0.000554  -0.000724  -0.018571   0.078594
  124  C 31  Z    0.002119   0.022003  -0.142251   0.005173   0.000836
  125  C 32  S   -0.250565  -0.003607  -0.005592  -0.159385  -0.129982
  126  C 32  X   -0.026884   0.002686   0.000996   0.017618  -0.140929
  127  C 32  Y   -0.066339  -0.000814   0.000212  -0.023467  -0.036180
  128  C 32  Z    0.001036   0.057138  -0.132784   0.005121  -0.001288

                     11         12         13         14         15
                   -1.1565    -1.0138    -1.0130    -0.9818    -0.9597
                     A          A          A          A          A   
    1  C  1  S   -0.035571  -0.211483  -0.141772  -0.148503  -0.032786
    2  C  1  X   -0.096802   0.100030  -0.052657  -0.023034   0.089265
    3  C  1  Y    0.088222  -0.041924   0.071701  -0.004549   0.050819
    4  C  1  Z   -0.000340   0.023945   0.013724  -0.015250   0.103899
    5  C  2  S    0.251474  -0.222838   0.070042  -0.114193   0.030844
    6  C  2  X   -0.037399  -0.006748  -0.076008   0.003419  -0.000342
    7  C  2  Y    0.001904   0.060213  -0.002077   0.016689   0.064718
    8  C  2  Z    0.064347   0.128504  -0.040560   0.049391   0.102040
    9  C  3  S    0.045817  -0.096340   0.242101  -0.147143  -0.024655
   10  C  3  X    0.126442  -0.134408  -0.004008   0.013408  -0.051666
   11  C  3  Y    0.054648  -0.025646  -0.035696  -0.006722   0.104351
   12  C  3  Z    0.033667   0.008797  -0.020219  -0.009491   0.126259
   13  C  4  S   -0.070208   0.019838  -0.125613   0.076904  -0.143475
   14  C  4  X   -0.033728   0.071676  -0.062759  -0.172413   0.039827
   15  C  4  Y   -0.024737  -0.142803  -0.059822  -0.060353  -0.068239
   16  C  4  Z   -0.021445   0.010815  -0.042101  -0.069034  -0.000618
   17  C  5  S   -0.059839  -0.120704   0.043131   0.051869   0.341729
   18  C  5  X   -0.003079   0.063083   0.146118   0.048235   0.010265
   19  C  5  Y    0.040415   0.063005  -0.061378   0.179630   0.019608
   20  C  5  Z   -0.018680  -0.040407   0.014560  -0.072910   0.010790
   21  C  6  S   -0.025354  -0.013663  -0.005708   0.392381  -0.006064
   22  C  6  X    0.000731  -0.002113   0.024801   0.011654  -0.029898
   23  C  6  Y   -0.003203  -0.027738   0.000189  -0.002596  -0.206326
   24  C  6  Z   -0.003573  -0.001081  -0.000407   0.019073   0.002450
   25  C  7  S   -0.074721   0.093441   0.083196   0.052464  -0.192982
   26  C  7  X    0.039285  -0.125455   0.035814   0.130929  -0.057349
   27  C  7  Y   -0.015850  -0.040148   0.129101  -0.116601  -0.042746
   28  C  7  Z   -0.022111   0.035116   0.031327  -0.068380  -0.003342
   29  C  8  S   -0.034863  -0.010656   0.262191  -0.139867   0.068752
   30  C  8  X    0.123725   0.121607   0.034204   0.023976  -0.028317
   31  C  8  Y    0.043623   0.038218   0.051896   0.022640   0.125188
   32  C  8  Z   -0.005055   0.001391  -0.029598  -0.008917  -0.120438
   33  C  9  S   -0.220373   0.000891   0.005644   0.017694   0.068453
   34  C  9  X   -0.071734   0.001073   0.001110   0.001128   0.027262
   35  C  9  Y   -0.060639  -0.002976   0.002507   0.007001   0.065319
   36  C  9  Z   -0.000582  -0.145782  -0.032777   0.127739   0.000370
   37  C 10  S   -0.134393  -0.005904   0.003609   0.019240   0.202786
   38  C 10  X    0.109187  -0.001641  -0.002697  -0.006002   0.021713
   39  C 10  Y    0.095392  -0.000299  -0.003025  -0.002930   0.005200
   40  C 10  Z   -0.000094  -0.045527  -0.141141   0.130593  -0.001443
   41  C 11  S    0.246472   0.052263  -0.237425  -0.100857  -0.008128
   42  C 11  X    0.017997  -0.010380  -0.062383  -0.019266   0.033344
   43  C 11  Y   -0.041591   0.081961  -0.003010  -0.008879  -0.001878
   44  C 11  Z    0.064634  -0.033704   0.130871   0.055411  -0.044615
   45  C 12  S   -0.045658   0.241813  -0.118332  -0.143632  -0.038809
   46  C 12  X   -0.028425   0.036747   0.008207   0.006966  -0.025906
   47  C 12  Y   -0.123813   0.016816   0.140675  -0.014393  -0.009665
   48  C 12  Z   -0.002253  -0.018747   0.011298  -0.009237   0.016431
   49  C 13  S    0.050956  -0.161142  -0.197645  -0.152948   0.057792
   50  C 13  X   -0.108914  -0.068376   0.065094  -0.012004   0.073298
   51  C 13  Y    0.085675   0.037214  -0.100533   0.019784   0.107135
   52  C 13  Z    0.031656   0.013086   0.020358  -0.000703  -0.121240
   53  C 14  S    0.047181   0.087103  -0.242718   0.144894  -0.029942
   54  C 14  X    0.126181   0.132953   0.000865  -0.026296  -0.054616
   55  C 14  Y    0.055447   0.024899   0.035385   0.013468   0.102537
   56  C 14  Z   -0.033707   0.011600  -0.018609  -0.017001  -0.124732
   57  C 15  S    0.252855   0.233573  -0.075900   0.100593   0.020524
   58  C 15  X   -0.037018   0.015081   0.077785  -0.001682  -0.001990
   59  C 15  Y   -0.004295  -0.060517   0.000511  -0.016205   0.064575
   60  C 15  Z   -0.064518   0.112579  -0.036282   0.050534  -0.107567
   61  C 16  S   -0.032994   0.209134   0.142269   0.156993  -0.040407
   62  C 16  X   -0.097481  -0.100172   0.049738   0.023092   0.092000
   63  C 16  Y    0.091574   0.048942  -0.073673  -0.008923   0.049476
   64  C 16  Z    0.001129   0.022014   0.012482  -0.003811  -0.104883
   65  C 17  S   -0.039846  -0.228840   0.117164   0.131781  -0.034694
   66  C 17  X   -0.030626  -0.036195  -0.009861  -0.018611  -0.023676
   67  C 17  Y   -0.127171  -0.019095  -0.130388   0.026339  -0.007460
   68  C 17  Z    0.002146  -0.018881   0.012172  -0.018761  -0.013439
   69  C 18  S   -0.080401  -0.092946  -0.086864  -0.076933  -0.192419
   70  C 18  X    0.037349   0.119226  -0.037323  -0.129756  -0.062866
   71  C 18  Y   -0.015203   0.033913  -0.126141   0.127058  -0.040677
   72  C 18  Z    0.021683   0.032834   0.029256  -0.062252  -0.000222
   73  C 19  S   -0.219619  -0.001497  -0.001383  -0.003041   0.181296
   74  C 19  X   -0.017245  -0.000415  -0.001449  -0.000942  -0.006124
   75  C 19  Y    0.096930   0.003016   0.001592   0.001595  -0.002013
   76  C 19  Z    0.000394   0.035427   0.136534   0.134830  -0.002168
   77  C 20  S   -0.143838   0.003601  -0.006301  -0.015958   0.061547
   78  C 20  X    0.028455  -0.000663   0.000448   0.001648   0.000094
   79  C 20  Y   -0.141233  -0.005235  -0.001879   0.003786   0.083279
   80  C 20  Z   -0.000886  -0.102287   0.104234   0.131883   0.001931
   81  C 21  S   -0.036729   0.013076   0.007662  -0.389462  -0.006753
   82  C 21  X    0.000323  -0.002708  -0.021624   0.011343  -0.029486
   83  C 21  Y   -0.001593   0.019883  -0.002963  -0.000116  -0.210908
   84  C 21  Z    0.004594  -0.000437  -0.000476   0.018896  -0.001810
   85  C 22  S   -0.075858  -0.030389   0.131161  -0.038047  -0.146607
   86  C 22  X   -0.032634  -0.070985   0.063227   0.172194   0.041868
   87  C 22  Y   -0.022959   0.142525   0.057990   0.059101  -0.072888
   88  C 22  Z    0.020208   0.011769  -0.040357  -0.065938  -0.001691
   89  C 23  S    0.045908  -0.260075   0.032066   0.139240  -0.027480
   90  C 23  X   -0.016699   0.049513   0.020917   0.013593   0.004440
   91  C 23  Y   -0.138135   0.045613   0.121124   0.021544   0.003109
   92  C 23  Z   -0.031168  -0.025899   0.001707  -0.002942   0.006943
   93  C 24  S    0.249130   0.180834   0.167608  -0.090734  -0.038175
   94  C 24  X    0.018283   0.002940  -0.069725   0.005781  -0.044244
   95  C 24  Y    0.032024   0.068177  -0.013214  -0.011296   0.006431
   96  C 24  Z    0.061423  -0.100807  -0.092969   0.041322  -0.060375
   97  C 25  S    0.045416   0.262503  -0.030925  -0.139297  -0.034250
   98  C 25  X   -0.018280  -0.046440  -0.027129  -0.028343   0.005155
   99  C 25  Y   -0.134708  -0.047971  -0.123791  -0.018233   0.004970
  100  C 25  Z    0.031952  -0.018290   0.001343  -0.022990  -0.006119
  101  C 26  S   -0.039737   0.017204  -0.257075   0.139278   0.081084
  102  C 26  X    0.125837  -0.121995  -0.033844  -0.015081  -0.027614
  103  C 26  Y    0.040602  -0.037714  -0.049053  -0.022044   0.122233
  104  C 26  Z    0.003202  -0.000066  -0.025276  -0.008757   0.116900
  105  C 27  S    0.246270  -0.182332  -0.169524   0.094487  -0.027799
  106  C 27  X    0.016584  -0.002549   0.068532  -0.013054  -0.045263
  107  C 27  Y    0.036337  -0.071096   0.013897   0.008054   0.005629
  108  C 27  Z   -0.063848  -0.090315  -0.084445   0.043423   0.066112
  109  C 28  S    0.251682  -0.057295   0.234789   0.104775  -0.005866
  110  C 28  X    0.026121   0.010681   0.058248   0.012673   0.031980
  111  C 28  Y   -0.036341  -0.071743   0.003004  -0.004805  -0.004138
  112  C 28  Z   -0.063457  -0.023836   0.118170   0.039760   0.046652
  113  C 29  S    0.055849   0.153016   0.192953   0.157571   0.058315
  114  C 29  X   -0.111122   0.074994  -0.058523   0.003848   0.069041
  115  C 29  Y    0.086834  -0.031907   0.096913  -0.027067   0.102945
  116  C 29  Z   -0.032528   0.019655   0.025070  -0.012498   0.118099
  117  C 30  S   -0.072086   0.134694  -0.034212  -0.057710   0.342380
  118  C 30  X   -0.009119  -0.060987  -0.143778  -0.041028   0.015005
  119  C 30  Y    0.040987  -0.063549   0.058462  -0.179801   0.021320
  120  C 30  Z    0.018846  -0.037615   0.013018  -0.065061  -0.003374
  121  C 31  S   -0.143806  -0.005994  -0.002336   0.008902  -0.261381
  122  C 31  X   -0.138103   0.000918   0.000533  -0.006627  -0.051743
  123  C 31  Y    0.045254  -0.003347  -0.002045   0.001005   0.022377
  124  C 31  Z   -0.000807   0.134789   0.023186   0.134791   0.003925
  125  C 32  S   -0.226698   0.001997  -0.000031  -0.001277  -0.245506
  126  C 32  X    0.089857   0.002870   0.000009  -0.000490   0.064962
  127  C 32  Y   -0.034829  -0.000003   0.000830  -0.002436   0.004687
  128  C 32  Z   -0.001499   0.095950  -0.103081   0.130405   0.005764

                     16         17         18         19         20
                   -0.9573    -0.9357    -0.9337    -0.8439    -0.8250
                     A          A          A          A          A   
    1  C  1  S    0.048461   0.022594   0.151257  -0.020568  -0.229527
    2  C  1  X   -0.052615   0.100445  -0.020145   0.139511   0.015217
    3  C  1  Y   -0.075824  -0.111015   0.088937  -0.128119  -0.005554
    4  C  1  Z   -0.090662  -0.025159   0.087783  -0.005949   0.011496
    5  C  2  S   -0.003581  -0.182695  -0.053537  -0.216926  -0.000164
    6  C  2  X   -0.011172  -0.072499   0.231931   0.009432  -0.148519
    7  C  2  Y   -0.001981  -0.000031  -0.052145   0.036798   0.032881
    8  C  2  Z   -0.007717  -0.064353  -0.013797   0.123327   0.001112
    9  C  3  S   -0.030776   0.097359  -0.113257  -0.017603   0.226567
   10  C  3  X   -0.020972  -0.079785  -0.131051  -0.181500   0.016467
   11  C  3  Y    0.077430  -0.012152  -0.083543  -0.061405   0.001992
   12  C  3  Z    0.078774   0.023391  -0.071935  -0.006512  -0.007456
   13  C  4  S    0.313907   0.071675  -0.045150   0.097052  -0.004378
   14  C  4  X    0.000629   0.024662  -0.033694   0.072155   0.044984
   15  C  4  Y   -0.044053   0.045449   0.015582   0.020339  -0.142260
   16  C  4  Z    0.010145   0.011473  -0.005919   0.030899  -0.002414
   17  C  5  S   -0.026374  -0.107751  -0.012336   0.096540  -0.001499
   18  C  5  X    0.089141   0.019232  -0.025831  -0.017612  -0.141769
   19  C  5  Y   -0.030389   0.032607   0.016368  -0.074148   0.038962
   20  C  5  Z    0.002603  -0.008542  -0.001903   0.030544  -0.002737
   21  C  6  S   -0.020588  -0.009257  -0.008915   0.005922   0.006943
   22  C  6  X    0.215349   0.012748  -0.008348   0.000165  -0.004574
   23  C  6  Y   -0.032860   0.038489  -0.000019  -0.000569  -0.002059
   24  C  6  Z   -0.001212  -0.000468  -0.000133   0.001831  -0.000454
   25  C  7  S   -0.293430   0.038369   0.056329   0.097772   0.003078
   26  C  7  X    0.009165   0.017685  -0.046713  -0.058175   0.101337
   27  C  7  Y    0.058244   0.042859   0.025032   0.049708   0.106648
   28  C  7  Z   -0.001240   0.005427   0.014287   0.031735  -0.001888
   29  C  8  S    0.013868   0.116968  -0.080975  -0.017925  -0.228400
   30  C  8  X   -0.002988   0.152340   0.077224  -0.185734  -0.014558
   31  C  8  Y    0.041982  -0.016090   0.058132  -0.054981  -0.009291
   32  C  8  Z   -0.048871   0.094793  -0.040775  -0.006702   0.013713
   33  C  9  S    0.228091  -0.135369   0.182060   0.003088   0.000804
   34  C  9  X    0.002842   0.048354   0.092090   0.001658   0.000858
   35  C  9  Y    0.003693   0.135370   0.165438   0.005704   0.007900
   36  C  9  Z   -0.014504  -0.009207  -0.000169  -0.118254   0.120303
   37  C 10  S    0.166699   0.169568   0.100958   0.002006   0.004613
   38  C 10  X   -0.041802   0.046086  -0.200930  -0.005550  -0.003680
   39  C 10  Y   -0.026410   0.004531  -0.126944  -0.002238  -0.003233
   40  C 10  Z   -0.012227  -0.002294   0.000821  -0.118232  -0.115900
   41  C 11  S    0.057954   0.132407  -0.123151  -0.219154   0.006168
   42  C 11  X   -0.059566   0.040945   0.059058  -0.036050   0.050378
   43  C 11  Y   -0.006399  -0.165252  -0.165059  -0.012813  -0.157151
   44  C 11  Z    0.095348   0.046901  -0.037402   0.120113   0.002253
   45  C 12  S   -0.036859  -0.121839  -0.049759  -0.018522  -0.234808
   46  C 12  X   -0.131859   0.044210   0.058861   0.044892   0.003329
   47  C 12  Y    0.032081  -0.006858   0.156746   0.188428   0.016681
   48  C 12  Z    0.142668  -0.070296  -0.048102  -0.009393   0.002813
   49  C 13  S   -0.009580   0.043349   0.138977  -0.012063   0.228504
   50  C 13  X   -0.029604  -0.148685  -0.035097   0.143182  -0.021757
   51  C 13  Y   -0.053511   0.081952  -0.032114  -0.127490   0.021641
   52  C 13  Z    0.064215   0.062055   0.070942  -0.007525  -0.008042
   53  C 14  S   -0.047229   0.103035  -0.112193   0.012865  -0.230921
   54  C 14  X   -0.010856  -0.072457  -0.131439   0.174146  -0.020883
   55  C 14  Y    0.075424  -0.014401  -0.086146   0.061577  -0.002485
   56  C 14  Z   -0.074016  -0.021711   0.072237  -0.000443  -0.007626
   57  C 15  S   -0.006263  -0.176432  -0.058600   0.224174  -0.001000
   58  C 15  X   -0.008292  -0.073845   0.226631   0.000222   0.155114
   59  C 15  Y   -0.003285   0.003093  -0.048978  -0.034533  -0.034419
   60  C 15  Z    0.007141   0.069902   0.010650   0.111048  -0.002123
   61  C 16  S    0.036314   0.020280   0.143265   0.021562   0.228560
   62  C 16  X   -0.059965   0.095626  -0.019447  -0.136663  -0.017979
   63  C 16  Y   -0.071391  -0.111783   0.090080   0.134845   0.008360
   64  C 16  Z    0.089554   0.024340  -0.087249   0.000204   0.012892
   65  C 17  S   -0.065114  -0.144884  -0.063266   0.022868   0.226868
   66  C 17  X   -0.126143   0.039568   0.062060  -0.045120   0.005672
   67  C 17  Y    0.030325  -0.016627   0.163011  -0.180659  -0.007202
   68  C 17  Z   -0.139788   0.069991   0.047739   0.001412   0.011916
   69  C 18  S   -0.290406   0.039806   0.066575  -0.093399   0.003281
   70  C 18  X    0.026665   0.035770  -0.040657   0.052749  -0.103908
   71  C 18  Y    0.046425   0.043642   0.024701  -0.052008  -0.110150
   72  C 18  Z    0.005606  -0.000142  -0.012439   0.033560  -0.001307
   73  C 19  S   -0.191615   0.194742   0.027494  -0.000237  -0.002332
   74  C 19  X   -0.027779   0.034468  -0.134347   0.002882   0.000744
   75  C 19  Y    0.040484  -0.085514   0.181216   0.000424   0.002189
   76  C 19  Z   -0.005835  -0.002812  -0.002353  -0.119835   0.111146
   77  C 20  S   -0.237005  -0.018219  -0.220144   0.005105   0.006439
   78  C 20  X    0.001201   0.002686   0.020073   0.001498   0.000112
   79  C 20  Y   -0.015921   0.220483  -0.071803   0.001652  -0.006744
   80  C 20  Z   -0.009936  -0.002209  -0.003567  -0.120810  -0.116542
   81  C 21  S    0.018839   0.006715   0.003974  -0.001435  -0.000042
   82  C 21  X    0.215433   0.011432  -0.012047  -0.002038   0.000992
   83  C 21  Y   -0.034033   0.043650   0.002534  -0.001139   0.000227
   84  C 21  Z   -0.003294  -0.000114  -0.000397   0.005343  -0.000218
   85  C 22  S    0.318110   0.071527  -0.049325  -0.096950   0.000620
   86  C 22  X   -0.017283   0.015171  -0.040875  -0.072141  -0.046125
   87  C 22  Y   -0.049742   0.048345   0.014568  -0.020395   0.144195
   88  C 22  Z    0.001024  -0.006816   0.008219   0.033486   0.000255
   89  C 23  S    0.049532  -0.148935  -0.028965   0.017140  -0.228561
   90  C 23  X   -0.136081  -0.031263  -0.033063  -0.031668   0.010322
   91  C 23  Y    0.025111   0.098995  -0.141737  -0.186606   0.016635
   92  C 23  Z    0.140640   0.082036  -0.000371  -0.000777  -0.011261
   93  C 24  S   -0.043831   0.044772   0.177256  -0.219858  -0.003449
   94  C 24  X   -0.044541  -0.158810   0.037726   0.030309   0.104128
   95  C 24  Y    0.034208  -0.181206   0.035299  -0.021275   0.111449
   96  C 24  Z   -0.097136   0.020476   0.045994   0.120872  -0.004883
   97  C 25  S    0.065956  -0.137063  -0.024680  -0.014407   0.229974
   98  C 25  X   -0.133006  -0.031991  -0.034698   0.039013  -0.002892
   99  C 25  Y    0.028378   0.098839  -0.135604   0.187197  -0.013155
  100  C 25  Z   -0.140117  -0.087609   0.000995  -0.006718  -0.004742
  101  C 26  S    0.007780   0.105879  -0.091005   0.014831   0.235184
  102  C 26  X   -0.001882   0.153372   0.079202   0.180300   0.017109
  103  C 26  Y    0.046188  -0.017036   0.056073   0.052535   0.010163
  104  C 26  Z    0.050481  -0.094967   0.039721   0.000889   0.012964
  105  C 27  S   -0.047661   0.040478   0.173103   0.220344   0.000026
  106  C 27  X   -0.043430  -0.155062   0.038302  -0.024703  -0.107606
  107  C 27  Y    0.032682  -0.180027   0.040705   0.026103  -0.118833
  108  C 27  Z    0.095612  -0.024205  -0.049281   0.112853   0.005835
  109  C 28  S    0.033427   0.133743  -0.132458   0.220566  -0.004026
  110  C 28  X   -0.057231   0.046037   0.053411   0.031132  -0.046599
  111  C 28  Y   -0.008514  -0.165387  -0.169299   0.011992   0.140492
  112  C 28  Z   -0.108511  -0.048644   0.033001   0.113157  -0.006942
  113  C 29  S   -0.031803   0.046867   0.141468   0.014125  -0.228605
  114  C 29  X   -0.026923  -0.152499  -0.027518  -0.140360   0.005908
  115  C 29  Y   -0.052489   0.085772  -0.033429   0.121676  -0.021301
  116  C 29  Z   -0.064706  -0.060973  -0.071379   0.002953  -0.021580
  117  C 30  S   -0.019325  -0.111725  -0.011160  -0.092973  -0.004487
  118  C 30  X    0.096800   0.014767  -0.034055   0.012154   0.153895
  119  C 30  Y   -0.012930   0.041972   0.022591   0.075211  -0.031000
  120  C 30  Z    0.002682   0.009668   0.003100   0.032771   0.000004
  121  C 31  S    0.068848  -0.153807   0.116194   0.002737   0.000127
  122  C 31  X   -0.026288  -0.157043  -0.133637   0.005583  -0.004179
  123  C 31  Y    0.018824   0.070578   0.095170  -0.003428   0.006063
  124  C 31  Z   -0.008098  -0.003772   0.000855  -0.123381  -0.104978
  125  C 32  S   -0.034087  -0.059404  -0.208944   0.002377  -0.001987
  126  C 32  X   -0.043009   0.230273  -0.037358  -0.006532   0.004381
  127  C 32  Y   -0.006084   0.017625  -0.025649  -0.001119  -0.000131
  128  C 32  Z   -0.004988  -0.004785  -0.002900  -0.122751   0.112738

                     21         22         23         24         25
                   -0.7793    -0.7666    -0.7645    -0.7592    -0.7557
                     A          A          A          A          A   
    1  C  1  S   -0.090384  -0.084506   0.005396   0.056954   0.107460
    2  C  1  X    0.067590   0.113231  -0.115191   0.067088   0.054469
    3  C  1  Y    0.068446   0.037031   0.012539   0.028441   0.094255
    4  C  1  Z    0.106174   0.097859  -0.093281   0.058072   0.086108
    5  C  2  S    0.011921  -0.000342   0.052659  -0.032169   0.115600
    6  C  2  X    0.010713  -0.086112  -0.015018   0.068355   0.029142
    7  C  2  Y    0.073295   0.029124  -0.070387  -0.010255   0.003858
    8  C  2  Z    0.130392   0.015216  -0.141664   0.028236  -0.045607
    9  C  3  S   -0.080260   0.091914   0.020405  -0.119589   0.042991
   10  C  3  X   -0.034273   0.057809   0.121425   0.043288   0.010108
   11  C  3  Y    0.094708  -0.064327  -0.071783  -0.093562   0.067264
   12  C  3  Z    0.110995  -0.072999  -0.127568  -0.085219   0.050116
   13  C  4  S   -0.061205  -0.082899  -0.095040  -0.190808  -0.199866
   14  C  4  X   -0.174349   0.013331  -0.106043   0.082383   0.127394
   15  C  4  Y   -0.082008  -0.126179   0.134178   0.069054  -0.019896
   16  C  4  Z   -0.079327  -0.018030  -0.026896   0.039134   0.048123
   17  C  5  S   -0.082776   0.003265   0.109612  -0.091175   0.258181
   18  C  5  X    0.054517   0.192911   0.023578  -0.064179   0.006842
   19  C  5  Y    0.198338  -0.037849  -0.040059  -0.024002   0.157049
   20  C  5  Z   -0.091859  -0.004837   0.025732   0.013328  -0.062633
   21  C  6  S    0.312805  -0.020096   0.042368   0.010966   0.004077
   22  C  6  X    0.010706   0.027468   0.002725  -0.268434  -0.157222
   23  C  6  Y   -0.017681  -0.027450   0.032326   0.150786  -0.270429
[...]
   35  C  9  Y    0.046933  -0.144277  -0.002993   0.000104  -0.000077
   36  C  9  Z    0.000009  -0.000034  -0.000030  -0.007667  -0.042391
   37  C 10  S    0.001111   0.081839   0.031891  -0.000184   0.000180
   38  C 10  X    0.043513  -0.171980  -0.006022   0.000089  -0.000091
   39  C 10  Y   -0.036490   0.262824   0.093955  -0.000333   0.000203
   40  C 10  Z   -0.000048   0.000013  -0.000083  -0.007562  -0.061129
   41  C 11  S   -0.023660   0.022447   0.049093  -0.159553  -0.066358
   42  C 11  X    0.186622  -0.183316  -0.157020   0.229027   0.134560
   43  C 11  Y    0.070663  -0.046889  -0.050125   0.073582   0.085617
   44  C 11  Z    0.108699  -0.103034  -0.114442   0.023245   0.012704
   45  C 12  S   -0.023254  -0.023978  -0.049637   0.068798  -0.022606
   46  C 12  X    0.001203   0.124414   0.118734  -0.083040   0.064391
   47  C 12  Y   -0.022140   0.000038  -0.018277  -0.032327  -0.056373
   48  C 12  Z   -0.005755   0.147868   0.079166  -0.076210   0.100844
   49  C 13  S    0.022339   0.024795  -0.049293   0.069425   0.065969
   50  C 13  X   -0.101145   0.005479   0.085724  -0.087339  -0.118226
   51  C 13  Y   -0.070218  -0.023515   0.083029  -0.023000  -0.100208
   52  C 13  Z   -0.147112  -0.003278   0.078579  -0.078214  -0.176025
   53  C 14  S   -0.032632   0.007302  -0.049686  -0.068816   0.055766
   54  C 14  X    0.024964   0.002369   0.029168  -0.024455  -0.068859
   55  C 14  Y   -0.067300   0.103982  -0.116469  -0.085935   0.134708
   56  C 14  Z   -0.076313   0.126863  -0.079060  -0.076532   0.183974
   57  C 15  S   -0.007519  -0.031616   0.049554   0.159698   0.020735
   58  C 15  X   -0.028106  -0.053370   0.035358   0.051596   0.066360
   59  C 15  Y   -0.058940  -0.261553   0.161932   0.235724   0.035369
   60  C 15  Z   -0.034713  -0.145652   0.114628   0.023189   0.003912
   61  C 16  S    0.032332  -0.008440  -0.049627  -0.069253  -0.069046
   62  C 16  X    0.063789   0.013150  -0.074871  -0.014183  -0.120999
   63  C 16  Y    0.088366   0.061475  -0.093709  -0.088805  -0.125264
   64  C 16  Z    0.125244   0.077830  -0.079134  -0.077491  -0.207575
   65  C 17  S   -0.023222  -0.023980  -0.049870  -0.068701   0.022689
   66  C 17  X    0.001247   0.124324   0.118908   0.082679  -0.064495
   67  C 17  Y   -0.022121   0.000027  -0.018082   0.032354   0.056363
   68  C 17  Z    0.005766  -0.147902  -0.079361  -0.075939   0.100817
   69  C 18  S    0.041860   0.012468   0.009436   0.028547  -0.074712
   70  C 18  X   -0.056891  -0.034458   0.000003  -0.016031   0.063397
   71  C 18  Y    0.061481  -0.001071  -0.000179   0.014696  -0.087940
   72  C 18  Z    0.185455   0.055032  -0.134208  -0.121043  -0.272500
   73  C 19  S    0.036008   0.073522   0.031712   0.000004  -0.000200
   74  C 19  X    0.168735   0.211933   0.044535   0.000000  -0.000226
   75  C 19  Y    0.089150   0.142656   0.082812  -0.000065  -0.000306
   76  C 19  Z   -0.000031  -0.000039   0.000037  -0.007297   0.061807
   77  C 20  S   -0.071581  -0.039761   0.031954  -0.000053  -0.000078
   78  C 20  X   -0.245401  -0.201656   0.084199  -0.000167  -0.000053
   79  C 20  Y   -0.005585  -0.025659  -0.041769   0.000050   0.000134
   80  C 20  Z    0.000060   0.000028   0.000022  -0.007419   0.016524
   81  C 21  S   -0.000064  -0.000042   0.029039   0.041530   0.000078
   82  C 21  X    0.034185  -0.016481   0.000121  -0.000022  -0.067314
   83  C 21  Y   -0.016455  -0.034232  -0.000311   0.000222   0.032607
   84  C 21  Z   -0.000450  -0.000386   0.385632   0.295309  -0.000742
   85  C 22  S   -0.031626   0.030015   0.009532   0.029059   0.055806
   86  C 22  X   -0.055191   0.062438   0.000068   0.021346   0.059802
   87  C 22  Y   -0.035614   0.001045  -0.000131   0.007057   0.076008
   88  C 22  Z   -0.140703   0.132535  -0.133639  -0.119274   0.206854
   89  C 23  S    0.009953  -0.031799  -0.049887  -0.068844   0.011306
   90  C 23  X   -0.041526  -0.105094  -0.115600  -0.062053  -0.004108
   91  C 23  Y    0.040771   0.037117   0.032830   0.063638  -0.045478
   92  C 23  Z   -0.071719  -0.128812  -0.079413  -0.076509  -0.006361
   93  C 24  S    0.031336   0.009349   0.049324  -0.159362   0.089173
   94  C 24  X    0.191750   0.067895   0.122168  -0.177076   0.140831
   95  C 24  Y   -0.180349  -0.041934  -0.111203   0.161410  -0.150809
   96  C 24  Z   -0.143692  -0.042820  -0.114527   0.023144  -0.016713
   97  C 25  S    0.009964  -0.031838  -0.049621   0.068909  -0.010907
   98  C 25  X   -0.041693  -0.105326  -0.115310   0.062320   0.004704
   99  C 25  Y    0.040875   0.037171   0.032784  -0.063793   0.045491
  100  C 25  Z    0.071845   0.129159   0.079007  -0.076633  -0.006985
  101  C 26  S   -0.008809   0.032103  -0.049523  -0.069041   0.047458
  102  C 26  X   -0.062657   0.015046  -0.043536  -0.069419   0.065183
  103  C 26  Y    0.085983  -0.064454   0.111208   0.056367  -0.083502
  104  C 26  Z   -0.129884   0.068900  -0.078744  -0.077397   0.107369
  105  C 27  S    0.031214   0.009304   0.049489   0.159149  -0.089237
  106  C 27  X    0.191793   0.067838   0.122475   0.176876  -0.141415
  107  C 27  Y   -0.180378  -0.041910  -0.111316  -0.161152   0.151173
  108  C 27  Z    0.143679   0.042804   0.114573   0.022761  -0.017056
  109  C 28  S   -0.023642   0.022413   0.049734   0.159440   0.066234
  110  C 28  X    0.186606  -0.183230  -0.158142  -0.228665  -0.134491
  111  C 28  Y    0.070686  -0.046874  -0.050545  -0.073471  -0.085568
  112  C 28  Z   -0.108781   0.103099   0.114664   0.023017   0.012643
  113  C 29  S    0.022340   0.024770  -0.049605  -0.069364  -0.065685
  114  C 29  X   -0.101021   0.005424   0.086108   0.087073   0.118008
  115  C 29  Y   -0.070202  -0.023529   0.083186   0.022848   0.099910
  116  C 29  Z    0.147075   0.003265  -0.079025  -0.078010  -0.176010
  117  C 30  S   -0.010094  -0.042420   0.009303   0.029373   0.017871
  118  C 30  X    0.027756   0.012402  -0.000052  -0.005123  -0.080099
  119  C 30  Y    0.014663   0.083976   0.000174  -0.022600  -0.008960
  120  C 30  Z   -0.044814  -0.187684  -0.134036  -0.117596   0.067018
  121  C 31  S    0.070336  -0.042058   0.031738   0.000023  -0.000255
  122  C 31  X   -0.127166   0.062657  -0.078109   0.000044   0.000319
  123  C 31  Y   -0.269723   0.092057  -0.052104  -0.000068   0.000445
  124  C 31  Z   -0.000007   0.000009   0.000004  -0.007014   0.044477
  125  C 32  S   -0.081730  -0.005819   0.031750  -0.000160   0.000195
  126  C 32  X   -0.011519  -0.015121   0.049410  -0.000112  -0.000016
  127  C 32  Y    0.315687  -0.036312  -0.079769   0.000280  -0.000328
  128  C 32  Z    0.000052   0.000034  -0.000093  -0.007112  -0.019268

                     71         72         73         74
                   -0.0539    -0.0462    -0.0462    -0.0363
                     A          A          A          A   
    1  C  1  S    0.013804  -0.016177  -0.145194   0.091575
    2  C  1  X   -0.024390   0.004666  -0.155278   0.129444
    3  C  1  Y    0.039956   0.019553  -0.061260   0.035846
    4  C  1  Z   -0.002621  -0.066166   0.089934  -0.019919
    5  C  2  S   -0.089061   0.017438   0.004816   0.000260
    6  C  2  X   -0.030518  -0.021256   0.060283  -0.035288
    7  C  2  Y   -0.205244  -0.017601  -0.018996   0.008043
    8  C  2  Z    0.016927   0.012207   0.003475  -0.000279
    9  C  3  S    0.044278  -0.087278   0.117327  -0.092284
   10  C  3  X    0.007876   0.061856  -0.098178   0.103140
   11  C  3  Y    0.098593  -0.043401   0.113749  -0.087015
   12  C  3  Z   -0.097241  -0.012135  -0.110940   0.020112
   13  C  4  S    0.054200  -0.090627   0.089979   0.000270
   14  C  4  X    0.090037  -0.088398   0.046521   0.026686
   15  C  4  Y   -0.031182   0.043445   0.086685  -0.082139
   16  C  4  Z   -0.195737   0.130354  -0.129438  -0.000250
   17  C  5  S   -0.075463   0.122974   0.033521  -0.000156
   18  C  5  X    0.004914   0.004142  -0.096683  -0.083965
   19  C  5  Y    0.108849  -0.099743  -0.006013   0.018548
   20  C  5  Z    0.277350  -0.177328  -0.048339   0.000191
   21  C  6  S   -0.000084   0.000123   0.000125  -0.000028
   22  C  6  X   -0.032852   0.046755  -0.090076  -0.000070
   23  C  6  Y   -0.067750   0.089949   0.046925  -0.000083
   24  C  6  Z   -0.000680  -0.000462  -0.000564   0.000113
   25  C  7  S    0.022381  -0.032760  -0.123694  -0.000065
   26  C  7  X   -0.074198   0.081845   0.055423   0.058462
   27  C  7  Y   -0.034913   0.051891  -0.083482   0.064058
   28  C  7  Z   -0.080199   0.047127   0.178246  -0.000091
   29  C  8  S    0.052802  -0.117610   0.086308   0.091709
   30  C  8  X    0.017683   0.014307  -0.025168  -0.033485
   31  C  8  Y   -0.145295   0.149924  -0.069926  -0.130000
   32  C  8  Z   -0.178044   0.110725   0.012778  -0.020413
   33  C  9  S    0.000275  -0.196737  -0.013920  -0.176076
   34  C  9  X   -0.000539   0.277653   0.011559   0.251827
   35  C  9  Y    0.000217  -0.096364   0.040998  -0.101009
   36  C  9  Z   -0.046783  -0.000105   0.000001  -0.000059
   37  C 10  S   -0.000272   0.164363  -0.109031   0.175931
   38  C 10  X    0.000233  -0.125921   0.025573  -0.124407
   39  C 10  Y   -0.000379   0.225190  -0.145028   0.240913
   40  C 10  Z    0.016127   0.000074  -0.000059  -0.000023
   41  C 11  S    0.064454  -0.012921   0.012632  -0.000461
   42  C 11  X   -0.154621  -0.001253   0.029518   0.011671
   43  C 11  Y   -0.004464  -0.048595  -0.039249  -0.034344
   44  C 11  Z   -0.012215  -0.008976   0.009159   0.000566
   45  C 12  S   -0.068073   0.133896   0.059122   0.092588
   46  C 12  X    0.158703  -0.103032  -0.082566  -0.096629
   47  C 12  Y   -0.015907   0.092921   0.047308   0.094429
   48  C 12  Z    0.182152  -0.044377  -0.102577  -0.020394
   49  C 13  S    0.025401  -0.057688  -0.134233  -0.091266
   50  C 13  X   -0.025864   0.039497   0.030756   0.023300
   51  C 13  Y   -0.088984   0.085153   0.136234   0.131804
   52  C 13  Z   -0.110265   0.101994   0.045595   0.019996
   53  C 14  S   -0.043988  -0.087647   0.117559  -0.092240
   54  C 14  X   -0.008157   0.061860  -0.098178   0.103071
   55  C 14  Y   -0.098509  -0.044034   0.114206  -0.086841
   56  C 14  Z   -0.097288   0.011334   0.111562  -0.020071
   57  C 15  S    0.089096   0.018015   0.004553   0.000174
   58  C 15  X    0.030801  -0.021176   0.060303  -0.035301
   59  C 15  Y    0.205769  -0.016610  -0.019489   0.007926
   60  C 15  Z    0.017272  -0.012170  -0.003506   0.000282
   61  C 16  S   -0.014221  -0.016291  -0.145256   0.091634
   62  C 16  X    0.023886   0.004912  -0.155554   0.129394
   63  C 16  Y   -0.040261   0.019452  -0.061357   0.035847
   64  C 16  Z   -0.003245   0.066231  -0.090166   0.019866
   65  C 17  S    0.067797   0.134040   0.059037   0.092610
   66  C 17  X   -0.158409  -0.103423  -0.082391  -0.096584
   67  C 17  Y    0.015707   0.092882   0.047410   0.094460
   68  C 17  Z    0.182243   0.044750   0.102489   0.020402
   69  C 18  S   -0.022410  -0.032611  -0.123707  -0.000095
   70  C 18  X    0.074169   0.082008   0.055372   0.058509
   71  C 18  Y    0.034617   0.052187  -0.083876   0.064001
   72  C 18  Z   -0.080748  -0.047157  -0.178709  -0.000108
   73  C 19  S    0.000099   0.086781   0.176839  -0.175138
   74  C 19  X   -0.000024   0.137318   0.177281  -0.212936
   75  C 19  Y    0.000146   0.070334   0.181626  -0.166958
   76  C 19  Z   -0.013423  -0.000093   0.000070   0.000031
   77  C 20  S    0.000185  -0.176827  -0.087265   0.175561
   78  C 20  X    0.000316  -0.249227  -0.153168   0.270530
   79  C 20  Y   -0.000103   0.045157  -0.022247  -0.012833
   80  C 20  Z   -0.060883  -0.000042   0.000115  -0.000060
   81  C 21  S    0.000046   0.000130   0.000125  -0.000033
   82  C 21  X    0.032418   0.046826  -0.090138  -0.000084
   83  C 21  Y    0.067371   0.089936   0.046814  -0.000011
   84  C 21  Z   -0.000318   0.000606   0.000404  -0.000125
   85  C 22  S   -0.053489  -0.090624   0.089962   0.000284
   86  C 22  X   -0.089902  -0.088832   0.046855   0.026714
   87  C 22  Y    0.031306   0.043517   0.086859  -0.082215
   88  C 22  Z   -0.195234  -0.131229   0.130400   0.000205
   89  C 23  S    0.070477   0.145483   0.016824  -0.092475
   90  C 23  X    0.171077   0.162363  -0.014923  -0.126776
   91  C 23  Y   -0.034763   0.040299   0.013357  -0.045662
   92  C 23  Z    0.207700   0.090502  -0.065884  -0.020503
   93  C 24  S    0.027155  -0.004832  -0.017267   0.000165
   94  C 24  X    0.084083  -0.038364   0.027610   0.024657
   95  C 24  Y    0.000052  -0.050263  -0.002624   0.026790
   96  C 24  Z   -0.005142  -0.003116  -0.012526  -0.000302
   97  C 25  S   -0.070891   0.145343   0.016728  -0.092380
   98  C 25  X   -0.171648   0.162009  -0.014707  -0.126833
   99  C 25  Y    0.034676   0.040327   0.013527  -0.045721
  100  C 25  Z    0.208257  -0.090168   0.065764   0.020542
  101  C 26  S   -0.052390  -0.117803   0.086712   0.091623
  102  C 26  X   -0.017891   0.014076  -0.024809  -0.033543
  103  C 26  Y    0.144808   0.150340  -0.070482  -0.129800
  104  C 26  Z   -0.177678  -0.111272  -0.011932   0.020275
  105  C 27  S   -0.027113  -0.004728  -0.017833   0.000329
  106  C 27  X   -0.083929  -0.038323   0.027052   0.024785
  107  C 27  Y    0.000030  -0.050498  -0.001919   0.026649
  108  C 27  Z   -0.005046   0.003120   0.012497   0.000304
  109  C 28  S   -0.064347  -0.013200   0.012892  -0.000407
  110  C 28  X    0.154592  -0.000593   0.028864   0.011630
  111  C 28  Y    0.004477  -0.048435  -0.039467  -0.034387
  112  C 28  Z   -0.012225   0.008915  -0.009117  -0.000579
  113  C 29  S   -0.025481  -0.057632  -0.134326  -0.091348
  114  C 29  X    0.025890   0.039337   0.030987   0.023269
  115  C 29  Y    0.089053   0.085264   0.136332   0.131811
  116  C 29  Z   -0.110140  -0.101984  -0.045757  -0.020008
  117  C 30  S    0.074986   0.122989   0.033301  -0.000072
  118  C 30  X   -0.004962   0.004354  -0.096960  -0.083990
  119  C 30  Y   -0.108784  -0.100143  -0.005822   0.018433
  120  C 30  Z    0.276915   0.177937   0.048193   0.000052
  121  C 31  S    0.000129   0.012236   0.196676   0.174437
  122  C 31  X   -0.000094  -0.031735  -0.170703  -0.145644
  123  C 31  Y   -0.000197   0.028377  -0.239296  -0.227145
  124  C 31  Z    0.044886   0.000032   0.000037   0.000022
  125  C 32  S   -0.000242   0.110175  -0.163321  -0.174611
  126  C 32  X   -0.000078   0.063270  -0.027362  -0.038191
  127  C 32  Y    0.000303  -0.135369   0.255075   0.267336
  128  C 32  Z    0.060109   0.000042  -0.000038   0.000082

     ----------------------------------------------------------------
     PROPERTY VALUES FOR THE RHF   SELF-CONSISTENT FIELD WAVEFUNCTION
     ----------------------------------------------------------------

                    -------------
                    MOPAC CHARGES
                    -------------
         ATOM NO.   TYPE          CHARGE        ATOM  ELECTRON DENSITY
           1         C              0.0418          3.9582
           2         C              0.0025          3.9975
           3         C              0.0415          3.9585
           4         C             -0.0486          4.0486
           5         C             -0.0493          4.0493
           6         C              0.0608          3.9392
           7         C             -0.0481          4.0481
           8         C              0.0426          3.9574
           9         C             -0.0577          4.0577
          10         C             -0.0576          4.0576
          11         C              0.0023          3.9977
          12         C              0.0417          3.9583
          13         C              0.0426          3.9574
          14         C              0.0413          3.9587
          15         C              0.0027          3.9973
          16         C              0.0417          3.9583
          17         C              0.0414          3.9586
          18         C             -0.0479          4.0479
          19         C             -0.0578          4.0578
          20         C             -0.0582          4.0582
          21         C              0.0608          3.9392
          22         C             -0.0486          4.0486
          23         C              0.0420          3.9580
          24         C              0.0023          3.9977
          25         C              0.0422          3.9578
          26         C              0.0425          3.9575
          27         C              0.0025          3.9975
          28         C              0.0026          3.9974
          29         C              0.0423          3.9577
          30         C             -0.0492          4.0492
          31         C             -0.0585          4.0585
          32         C             -0.0586          4.0586

          ---------------------
          ELECTROSTATIC MOMENTS
          ---------------------

 POINT   1           X           Y           Z (ANGS)      CHARGE
                 0.000000    0.000000    0.000000        0.00 (A.U.)
         DX          DY          DZ         /D/  (DEBYE)
    -0.000707    0.002591   -0.000933    0.002844
 ...... END OF PROPERTY EVALUATION ......
 CPU     0: STEP CPU TIME=     0.05 TOTAL CPU TIME=          0.8 (      0.0 MIN)
 TOTAL WALL CLOCK TIME=          1.0 SECONDS, CPU UTILIZATION IS    79.89%
  $VIB   
          IVIB=   0 IATOM=   0 ICOORD=   0 E=     -138.1226078183
 -9.979023458E-05-2.533469957E-04-1.151448912E-04-1.123822117E-04 1.353655451E-04
  4.193423349E-04 2.116460105E-04-1.716855235E-04-2.222453972E-04 5.677865491E-05
  2.674340060E-04-2.824134164E-04-6.698164820E-05-2.282047972E-04-5.788719397E-05
 -2.208249999E-05 2.153392435E-04 4.160660111E-04 8.751527412E-05 1.578658897E-04
 -3.564037198E-04-1.051493603E-04 5.212347652E-05-1.583901615E-06-5.742481629E-05
  3.159322789E-04-3.782868326E-05-3.585057676E-04 3.741690062E-05 6.513155439E-05
 -1.612179368E-04 2.396949605E-04 4.250341166E-04-3.577950079E-05-2.524919514E-04
 -6.230790517E-06 1.993076830E-04-8.467685886E-05 8.601224856E-06 1.819316584E-04
  5.845701717E-06 9.528128365E-05-1.707775074E-04-1.521885907E-05-3.527099134E-04
 -8.971303036E-06-1.967604721E-04 1.807388993E-04-2.196941943E-05-2.741508280E-04
  9.018044612E-05 7.618756490E-05-4.236891703E-05 1.721531894E-04 1.882742706E-04
 -6.853220809E-05-2.979095015E-05 1.596577871E-04 9.533113112E-05-3.942032302E-07
 -6.826873115E-05 1.714142601E-04 3.816452844E-05-1.221061046E-04 2.611980323E-04
 -5.346222678E-05 1.211703763E-04-2.290269309E-04-4.810152576E-05 2.198345062E-04
  7.220920062E-05 3.963718689E-04-1.703924255E-05-1.783150164E-04 7.664434623E-05
 -1.240728399E-04-1.429094215E-04-9.163554907E-05 8.541030515E-05 1.754123829E-04
 -3.404325928E-04-5.268717829E-05 2.493710261E-04-3.276039583E-04 1.811322541E-04
 -7.604560171E-05 5.639172553E-05-1.331580415E-04-5.404332833E-05-1.592706698E-04
 -5.640938647E-05-9.763287422E-05-3.878386334E-05 2.592738540E-05-8.654345151E-05
  8.182191714E-05
 -7.072938912E-04 2.591112129E-03-9.334838313E-04
 ......END OF GEOMETRY SEARCH......
 CPU     0: STEP CPU TIME=     0.02 TOTAL CPU TIME=          0.8 (      0.0 MIN)
 TOTAL WALL CLOCK TIME=          1.0 SECONDS, CPU UTILIZATION IS    80.17%
                580000  WORDS OF DYNAMIC MEMORY USED
 EXECUTION OF GAMESS TERMINATED NORMALLY 21:04:10 22-MAY-2023    
 DDI: 263640 bytes (0.3 MB / 0 MWords) used by master data server.

 ----------------------------------------
 CPU timing information for all processes
 ========================================
 0: 0.593750 + 0.281250 = 0.875000
 1: 0.609375 + 0.078125 = 0.687500
 2: 0.375000 + 0.421875 = 0.796875
 3: 0.125000 + 0.328125 = 0.453125
 ----------------------------------------
           Disk usage (in bytes)       
 ========================================
 ----------------------------------------
            Local date and time          
 ========================================
22.05.2023 - 21:04:10,71                          
