          *******************************************************
          *                                                     *
          *          GAMESS VERSION = 30 SEP 2022 (R2)          *
          *                                                     *
          *              doi.org/10.1063/5.0005188              *
          *                                                     *
          *************** 64 BIT WINDOWS VERSION ****************

  GAMESS HAS BEEN MADE POSSIBLE WITH IMPORTANT CONTRIBUTIONS FROM
  THE FOLLOWING INDIVIDUALS (IN ALPHABETICAL ORDER):

     IVANA ADAMOVIC, CHRISTINE AIKENS, TOMOKO AKAMA,
     MELISA ALKAN, YURI ALEXEEV, YURIKO AOKI, POOJA ARORA,
     TOSHIO ASADA, ANDREY ASADCHEV, KIM K. BALDRIDGE,
     PRADIPTA BANDYOPADHYAY, TAYLOR A. BARNES, MARIA BARYSZ,
     ROB BELL, JONATHAN BENTZ, COLLEEN BERTONI,
     JERRY A. BOATZ, BRETT BODE, KURT BRORSEN, KURT R. BRORSEN,
     LAIMUTIS BYTAUTAS, CALEB CARLIN, LAURA CARRINGTON,
     GALINA CHABAN, BENOIT CHAMPAGNE, WEI CHEN, MAHITO CHIBA,
     DAN CHIPMAN, CHEOL HO CHOI, TANNER CULPITT,
     DIPAYAN DATTA, PAUL DAY, ALBERT DEFUSCO,
     NUWAN DESILVA, J. EMILIANO DEUSTUA,
     TIM DUDLEY, MICHEL DUPUIS, STEVEN T. ELBERT,
     DMITRI FEDOROV, KATHERINE FERRERAS, MICHAEL FILATOV,
     ALEX FINDLATER,GRAHAM FLETCHER, MARK FREITAG,
     CHRISTIAN FRIEDL, DAVID GARMER, 
     IGOR S. GERASIMOV, KURT GLAESEMANN,
     MARK S. GORDON, JEFFREY GOUR, FENG LONG GU,
     EMILIE B. GUIDEZ, ANASTASIA GUNINA, SHARON HAMMES-SCHIFFER,
     MASATAKE HARUTA, KIMIHIKO HIRAO, YASUHIRO IKABATA,
     TZVETELIN IORDANOV, STEPHAN IRLE, KAZUYA ISHIMURA,
     JOE IVANIC, FRANK JENSEN, JAN H. JENSEN, VISVALDAS KAIRYS,
     MUNEAKI KAMIYA, MICHIO KATOUDA, NAOAKI KAWAKAMI, DAN KEMP,
     BERNARD KIRTMAN, KAZUO KITAURA, MARIUSZ KLOBUKOWSKI,
     MASATO KOBAYASHI, KONSTANTIN KOMAROV, PRAKASHAN KORAMBATH,
     JACEK KORCHOWIEC, SHIRO KOSEKI, KAROL KOWALSKI,
     JIMMY KROMANN, STANISLAW KUCHARSKI, HENRY KURTZ,
     SAROM SOK LEANG, SEUNGHOON LEE, HUI LI, SHUHUA LI, WEI LI,
     JESSE LUTZ, ALEKSANDR O. LYKHIN, MARCIN MAKOWSKI,
     JOANI MATO, NIKITA MATSUNAGA, BENEDETTA MENNUCCI,
     GRANT MERRILL, NORIYUKI MINEZAWA, VLADIMIR MIRONOV,
     EISAKU MIYOSHI, JOHN A. MONTGOMERY JR., HIROTOSHI MORI,
     JONATHAN MULLIN, MONIKA MUSIAL, SHIGERU NAGASE,
     TAKESHI NAGATA, HIROMI NAKAI, TAKAHITO NAKAJIMA,
     YUYA NAKAJIMA, HARUYUKI NAKANO, HIROYA NAKATA, SEAN NEDD,
     HEATHER NETZLOFF, KIET A. NGUYEN, YOSHIO NISHIMOTO,
     BOSILJKA NJEGIC, RYAN OLSON, MIKE PAK, ROBERTO PEVERATI,
     BUU PHAM, PIOTR PIECUCH, ANNA POMOGAEVA, DAVID POOLE,
     SPENCER PRUITT, OLIVIER QUINET, LUKE ROSKOP,
     KLAUS RUEDENBERG, ANDREW SAND, TOSAPORN SATTASATHUCHANA,
     NOZOMI SAWADA, MICHAEL W. SCHMIDT, PATRICK E. SCHNEIDER,
     JUNJI SEINO, PRACHI SHARMA, JUN SHEN, JIM SHOEMAKER,
     YINAN SHU, DEJUN SI, JONATHAN SKONE, LYUDMILA SLIPCHENKO,
     TONY SMITH, JIE SONG, MARK SPACKMAN, CASPER STEINMANN,
     WALT STEVENS, PEIFENG SU, SHUJUN SU, CHET SWALINA,
     CHINAMI TAKASHIMA, TETSUYA TAKETSUGU, ZHEN TAO,
     NANDUN THELLAMUREGE, SEIKEN TOKURA, JACOPO TOMASI,
     TSUGUKI TOUMA, TAKAO TSUNEDA, HIROAKI UMEDA,
     JORGE LUIS GALVEZ VALLEJO, YALI WANG, SIMON WEBB,
     AARON WEST, THERESA L. WINDUS, MARTA WLOCH,
     PENG XU, KIYOSHI YAGI, SUSUMU YANAGISAWA, YANG YANG,
     SOOHAENG YOO, TAKESHI YOSHIKAWA, FEDERICO ZAHARIEV,
     TOBY ZENG

  WHO ARE SUPPORTED BY THEIR INSTITUTION/UNIVERSITY/COMPANY/GROUP
  (IN ALPHABETICAL ORDER):

     EP ANALYTICS,
     FACULTES UNIVERSITAIRES NOTRE-DAME DE LA PAIX,
     INSTITUTE FOR MOLECULAR SCIENCE, IOWA STATE UNIVERSITY,
     JACKSON STATE UNIVERSITY, JOHANNES KEPLER UNIVERSITY LINZ,
     KYUNGPOOK NATIONAL UNIVERSITY
     KYUSHU UNIVERSITY, MICHIGAN STATE UNIVERSITY,
     MIE UNIVERSITY, THE MOLECULAR SCIENCES SOFTWARE INSTITUTE,
     MOSCOW STATE UNIVERSITY,
     N. COPERNICUS UNIVERSITY, NAGOYA UNIVERSITY,
     NANJING UNIVERSITY, NAT. INST. OF ADVANCED INDUSTRIAL
     SCIENCE AND TECHNOLOGY, NATIONAL INST. OF STANDARDS AND
     TECHNOLOGY, NESMEYANOV INSTITUTE OF ORGANOELEMENT COMPOUNDS
     OF RUSSIAN ACADEMY OF SCIENCES, OSAKA PREFECTURE UNIVERSITY,
     PENNSYLVANIA STATE UNIVERSITY, TOKYO INSTITUTE OF TECHNOLOGY,
     UNIVERSITY OF AARHUS, UNIVERSITY OF ALBERTA,
     UNIVERSITY OF CALIFORNIA AT SANTA BARBARA,
     UNIVERSITY OF COPENHAGEN, UNIVERSITY OF IOWA,
     UNIVERSITY OF MEMPHIS, UNIVERSITY OF MINNESOTA,
     UNIVERSITY OF NEBRASKA, UNIVERSITY OF NEW ENGLAND,
     UNIVERSITY OF NOTRE DAME, UNIVERSITY OF PISA,
     UNIVERSITY OF SILESIA, UNIVERSITY OF TOKYO,
     UNIVERSITY OF ZURICH, WASEDA UNIVERSITY,
     YALE UNIVERSITY

  GAMESS SOFTWARE MANAGEMENT TEAM FOR THIS RELEASE:
     MARK S. GORDON (TEAM LEAD),
     BRETT BODE (SENIOR ADVISOR),
     GIUSEPPE BARCA,
     COLLEEN BERTONI,
     KRISTOPHER KEIPERT (ADVISOR),
     SAROM S. LEANG (DEVELOPMENT LEAD),
     BUU PHAM,
     JACKSON HAYES (WEBSITE ADMINISTRATOR),
     PENG XU


 PARALLEL VERSION RUNNING ON        2 PROCESSORS IN        2 NODES.

 EXECUTION OF GAMESS BEGUN 21:03:40 22-MAY-2023    

            ECHO OF THE FIRST FEW INPUT CARDS -
 INPUT CARD>! (Energy/Geometry) PM3                                                         
 INPUT CARD> $CONTRL                                                                        
 INPUT CARD>COORD=UNIQUE                                                                    
 INPUT CARD>ICHARG=0                                                                        
 INPUT CARD>MAXIT=200                                                                       
 INPUT CARD>MULT=1                                                                          
 INPUT CARD>RUNTYP=OPTIMIZE                                                                 
 INPUT CARD>SCFTYP=RHF                                                                      
 INPUT CARD>UNITS=ANGS                                                                      
 INPUT CARD>! DFTTYP=PBE                                                                    
 INPUT CARD> $END                                                                           
 INPUT CARD> $DFT                                                                           
 INPUT CARD>METHOD=GRID                                                                     
 INPUT CARD> $END                                                                           
 INPUT CARD> $BASIS                                                                         
 INPUT CARD>! EXTFIL=.T.                                                                    
 INPUT CARD>! GBASIS=GEGSSBAS                                                               
 INPUT CARD>! NGAUSS=6                                                                      
 INPUT CARD>GBASIS=PM3                                                                      
 INPUT CARD>! NDFUNC=1                                                                      
 INPUT CARD>! NPFUNC=1                                                                      
 INPUT CARD> $END                                                                           
 INPUT CARD> $SCF                                                                           
 INPUT CARD>DAMP=.F.                                                                        
 INPUT CARD>DEM=.F.                                                                         
 INPUT CARD>DIIS=.F.                                                                        
 INPUT CARD>DIRSCF=.T.                                                                      
 INPUT CARD>EXTRAP=.T.                                                                      
 INPUT CARD>RSTRCT=.F.                                                                      
 INPUT CARD>SHIFT=.F.                                                                       
 INPUT CARD>SOSCF=.T.                                                                       
 INPUT CARD> $END                                                                           
 INPUT CARD> $STATPT                                                                        
 INPUT CARD>METHOD=QA                                                                       
 INPUT CARD>NSTEP=100                                                                       
 INPUT CARD>OPTTOL=0.001                                                                    
 INPUT CARD> $END                                                                           
 INPUT CARD> $GUESS                                                                         
 INPUT CARD>GUESS=HUCKEL                                                                    
 INPUT CARD> $END                                                                           
 INPUT CARD> $SYSTEM                                                                        
 INPUT CARD>MWORDS=10                                                                       
 INPUT CARD> $END                                                                           
 INPUT CARD> $DATA                                                                          
 INPUT CARD>C32 FULLERENE                                                                   
 INPUT CARD>C1                                                                              
 INPUT CARD>C	6.0	-1.26580	-1.98300	0.58440                                                 
 INPUT CARD>C	6.0	1.26920	-1.93930	-0.53550                                                 
 INPUT CARD>C	6.0	0.14550	-1.64880	-1.30890                                                 
 INPUT CARD>C	6.0	-1.14720	-1.79840	-0.80190                                                
     10000000 WORDS OF MEMORY AVAILABLE

     BASIS OPTIONS
     -------------
     GBASIS=PM3          IGAUSS=       0      POLAR=NONE    
     NDFUNC=       0     NFFUNC=       0     DIFFSP=       F
     NPFUNC=       0      DIFFS=       F     BASNAM=        


     RUN TITLE
     ---------
 C32 FULLERENE                                                                   

 THE POINT GROUP OF THE MOLECULE IS C1      
 THE ORDER OF THE PRINCIPAL AXIS IS     0

 ATOM      ATOMIC                      COORDINATES (BOHR)
           CHARGE         X                   Y                   Z
 C           6.0    -2.3920151553       -3.7473266337        1.1043558672
 C           6.0     2.3984402236       -3.6647456080       -1.0119482664
 C           6.0     0.2749551312       -3.1157802086       -2.4734623453
 C           6.0    -2.1678936531       -3.3984832163       -1.5153712696
 C           6.0    -4.4040064144       -2.3173709787        1.8515535228
 C           6.0    -5.6689889906       -1.2596913434       -0.1199976002
 C           6.0    -4.1383109405       -1.7818226338       -2.2037984469
 C           6.0    -3.4336321197       -0.4423848537        3.3102330127
 C           6.0    -0.9193516930       -0.9926730614        3.8408680700
 C           6.0     0.8989426524        0.9391938159        3.8159236870
 C           6.0    -4.1611766250        1.8449394818        2.2385694051
 C           6.0    -2.1869798856        3.4559308863        1.5503312003
 C           6.0     0.2536012276        3.2089436998        2.5165480978
 C           6.0    -5.7069724829        1.3126036711        0.1504221886
 C           6.0     3.4160576680        0.4104484845        3.2733833559
 C           6.0     4.4225257291        2.2886471437        1.8007198937
 C           6.0     2.3908813197        3.7014062922        1.0727974432
 C           6.0     4.1668458029       -1.8870803713        2.2595453635
 C           6.0     2.1988851593       -3.5466377338        1.6370696232
 C           6.0    -0.2449084880       -3.2943593144        2.5879797402
 C           6.0     5.6752250863       -1.2961630550        0.1659179417
 C           6.0     5.7007363872        1.2931394934       -0.1747996539
 C           6.0     4.4047623048       -2.2706947468       -1.8101685236
 C           6.0     3.4653795163       -0.4130941009       -3.3391458203
 C           6.0    -0.2604042411        3.1594328789       -2.5156032349
 C           6.0     2.1962395429        3.4508286262       -1.5675277068
 C           6.0     4.1995380625        1.8736633168       -2.2578446101
 C           6.0    -2.4313214558        3.6687140326       -1.0860255251
 C           6.0    -4.4746821663        2.3118907734       -1.8642146869
 C           6.0     0.9354143639       -0.9176509396       -3.9071974522
 C           6.0    -0.9459968295        0.9603587470       -3.9402676570
 C           6.0    -3.4665133519        0.4714866339       -3.3863889700

          INTERNUCLEAR DISTANCES (ANGS.)
          ------------------------------

                1 C          2 C          3 C          4 C          5 C     

   1 C       0.0000000    2.7716982 *  2.3849617 *  1.4035565 *  1.3647425 *
   2 C       2.7716982 *  0.0000000    1.3947184 *  2.4351203 *  3.9701818  
   3 C       2.3849617 *  1.3947184 *  0.0000000    1.3966039 *  3.3981215  
   4 C       1.4035565 *  2.4351203 *  1.3966039 *  0.0000000    2.2140353 *
   5 C       1.3647425 *  3.9701818    3.3981215    2.2140353 *  0.0000000  
   6 C       2.2715163 *  4.4797058    3.5226807    2.2931862 *  1.3600865 *
   7 C       2.2361505 *  3.6545818    2.4439213 *  1.3970748 *  2.1691934 *
   8 C       2.1737208 *  4.2028111    3.9012889    3.0686381    1.3579296 *
   9 C       2.1975421 *  3.4170898    3.5814285    3.1766541    2.2360488 *
  10 C       3.3529331    3.6183149    3.9737142    3.9826919    3.4532711  
  11 C       3.1613552    4.8485768    4.3150259    3.5717986    2.2158299 *
  12 C       3.8206397    4.6824080    4.2807602    3.9734795    3.2764985  
  13 C       4.0086100    4.2432699    4.2631720    4.2918233    3.8406634  
  14 C       3.2406145    5.0708001    4.1761042    3.2402887    2.2306114 *
  15 C       3.9502819    3.1753642    3.9361344    4.3835762    4.4468525  
  16 C       4.8313584    3.6452174    4.2558095    4.9294086    5.2685876  
  17 C       4.6843611    4.0511073    4.2177496    4.6702546    4.8211109  
  18 C       3.6591233    2.1812133 *  3.3071621    3.9833818    4.5463414  
  19 C       2.4480054 *  1.4071606 *  2.4124690 *  2.8511111 *  3.5559482  
  20 C       1.4017091 *  2.3715148 *  2.6941486 *  2.3986504 *  2.2941482 *
  21 C       4.4892584    2.2285131 *  3.3233111    4.3880568    5.4347081  
  22 C       5.0904311    3.1832817    3.8944543    4.8995011    5.7786475  
  23 C       3.9906799    1.3600845 *  2.2581324 *  3.5323768    5.0481622  
  24 C       4.2719679    2.1900169 *  2.2595762 *  3.5090664    5.0893776  
  25 C       4.2778735    3.9564571    3.3328373    3.6526742    4.3067642  
  26 C       4.7332378    3.7783756    3.6521820    4.2978006    4.9789221  
  27 C       4.9173209    3.1516130    3.3611458    4.3922025    5.5113982  
  28 C       4.0920485    4.6468788    3.9343991    3.7492874    3.6797447  
  29 C       3.7367569    4.8409264    3.8302290    3.2642703    3.1414590  
  30 C       3.5179152    2.2494354 *  1.4320650 *  2.4540296 *  4.2212242  
  31 C       3.7306620    3.3946588    2.3817180 *  2.7175536 *  3.9687071  
  32 C       3.3097793    4.0002463    2.7851270 *  2.3762231 *  3.1791471  

                6 C          7 C          8 C          9 C         10 C     

   1 C       2.2715163 *  2.2361505 *  2.1737208 *  2.1975421 *  3.3529331  
   2 C       4.4797058    3.6545818    4.2028111    3.4170898    3.6183149  
   3 C       3.5226807    2.4439213 *  3.9012889    3.5814285    3.9737142  
   4 C       2.2931862 *  1.3970748 *  3.0686381    3.1766541    3.9826919  
   5 C       1.3600865 *  2.1691934 *  1.3579296 *  2.2360488 *  3.4532711  
   6 C       0.0000000    1.3958470 *  2.2093573 *  3.2757230    4.2156632  
   7 C       1.3958470 *  0.0000000    3.0258209    3.6479642    4.3961512  
   8 C       2.2093573 *  3.0258209    0.0000000    1.3906388 *  2.4212786 *
   9 C       3.2757230    3.6479642    1.3906388 *  0.0000000    1.4039588 *
  10 C       4.2156632    4.3961512    2.4212786 *  1.4039588 *  0.0000000  
  11 C       2.2121298 *  3.0347546    1.3910052 *  2.4324221 *  2.8454402 *
  12 C       3.2254419    3.5630273    2.3575581 *  2.7314732 *  2.4244054 *
  13 C       4.1666500    4.3146061    2.7779450 *  2.4124462 *  1.4255024 *
  14 C       1.3688488 *  2.2186685 *  2.2595599 *  3.4235357    4.0026741  
  15 C       5.2075578    5.0722145    3.6527390    2.4299877 *  1.3910207 *
  16 C       5.7512227    5.4454580    4.4732346    3.4887561    2.2635991 *
  17 C       5.0479393    4.8335709    3.9636075    3.3740699    2.2061323 *
  18 C       5.3653325    4.9896713    4.1315954    2.8580447 *  2.4301471 *
  19 C       4.4343933    4.0310281    3.5165854    2.4309267 *  2.7271857 *
  20 C       3.3839908    3.3638149    2.2958833 *  1.4319464 *  2.4098905 *
  21 C       6.0050374    5.3485374    5.1192787    3.9982067    3.3938475  
  22 C       6.1664615    5.5596129    5.2544446    4.2721385    3.3092993  
  23 C       5.4317221    4.5329844    5.0480752    4.1638464    3.8975286  
  24 C       5.1446353    4.1322794    5.0704862    4.4625169    4.0856562  
  25 C       3.9073344    3.3279902    3.9945990    4.0328349    3.6031406  
  26 C       4.9115563    4.3608832    4.4477691    4.0544220    3.2176778  
  27 C       5.5946857    4.8176997    5.1478056    4.4781408    3.6912844  
  28 C       3.1620225    3.0797743    3.2289722    3.6772627    3.4526553  
  29 C       2.1962361 *  2.1810162 *  3.1504819    3.9638338    4.2010179  
  30 C       4.0328035    2.8688557 *  4.4716494    4.2161284    4.2034066  
  31 C       3.4225023    2.4091083 *  4.1237062    4.2453446    4.2189319  
  32 C       2.2771345 *  1.3927755 *  3.5765880    4.1284319    4.4636113  

               11 C         12 C         13 C         14 C         15 C     

   1 C       3.1613552    3.8206397    4.0086100    3.2406145    3.9502819  
   2 C       4.8485768    4.6824080    4.2432699    5.0708001    3.1753642  
   3 C       4.3150259    4.2807602    4.2631720    4.1761042    3.9361344  
   4 C       3.5717986    3.9734795    4.2918233    3.2402887    4.3835762  
   5 C       2.2158299 *  3.2764985    3.8406634    2.2306114 *  4.4468525  
   6 C       2.2121298 *  3.2254419    4.1666500    1.3688488 *  5.2075578  
   7 C       3.0347546    3.5630273    4.3146061    2.2186685 *  5.0722145  
   8 C       1.3910052 *  2.3575581 *  2.7779450 *  2.2595599 *  3.6527390  
   9 C       2.4324221 *  2.7314732 *  2.4124462 *  3.4235357    2.4299877 *
  10 C       2.8454402 *  2.4244054 *  1.4255024 *  4.0026741    1.3910207 *
  11 C       0.0000000    1.3967090 *  2.4495845 *  1.4033901 *  4.1174983  
  12 C       1.3967090 *  0.0000000    1.3951639 *  2.3032250 *  3.4956915  
  13 C       2.4495845 *  1.3951639 *  0.0000000    3.5388903    2.2702571 *
  14 C       1.4033901 *  2.3032250 *  3.5388903    0.0000000    5.1250058  
  15 C       4.1174983    3.4956915    2.2702571 *  5.1250058    0.0000000  
  16 C       4.5542623    3.5541969    2.2907500 *  5.4554781    1.3706963 *
  17 C       3.6561115    2.4391059 *  1.3895213 *  4.4943442    2.1640676 *
  18 C       4.8292859    4.4090931    3.4027782    5.6047507    1.3870289 *
  19 C       4.4236589    4.3726599    3.7491561    4.9732790    2.3557342 *
  20 C       3.4242158    3.7573364    3.4517029    3.9951984    2.7799717 *
  21 C       5.5731487    4.9163176    3.9321628    6.1793839    2.2246036 *
  22 C       5.3806206    4.4232955    3.3711930    6.0391615    2.2381674 *
  23 C       5.4663276    4.9510821    4.2983740    5.7709715    3.0859957  
  24 C       5.1407597    4.4534441    4.0204876    5.2728778    3.5263300  
  25 C       3.3277666    2.3860806 *  2.6768838 *  3.3544819    3.9096729  
  26 C       4.0120569    2.8464465 *  2.3966546 *  4.4269122    3.0931434  
  27 C       5.0235651    4.0229092    3.3530057    5.4031430    3.0559389  
  28 C       2.2055638 *  1.4055964 *  2.3900269 *  2.2332251 *  4.2272149  
  29 C       2.1914051 *  2.2576424 *  3.4438199    1.3569941 *  5.0832473  
  30 C       4.4707679    4.0530343    4.0563485    4.2846896    4.0811260  
  31 C       3.7154835    3.2583998    3.6733303    3.3268675    4.4704261  
  32 C       3.0860194    3.1268653    3.9662740    2.2597894 *  5.0681280  

               16 C         17 C         18 C         19 C         20 C     

   1 C       4.8313584    4.6843611    3.6591233    2.4480054 *  1.4017091 *
   2 C       3.6452174    4.0511073    2.1812133 *  1.4071606 *  2.3715148 *
   3 C       4.2558095    4.2177496    3.3071621    2.4124690 *  2.6941486 *
   4 C       4.9294086    4.6702546    3.9833818    2.8511111 *  2.3986504 *
   5 C       5.2685876    4.8211109    4.5463414    3.5559482    2.2941482 *
   6 C       5.7512227    5.0479393    5.3653325    4.4343933    3.3839908  
   7 C       5.4454580    4.8335709    4.9896713    4.0310281    3.3638149  
   8 C       4.4732346    3.9636075    4.1315954    3.5165854    2.2958833 *
   9 C       3.4887561    3.3740699    2.8580447 *  2.4309267 *  1.4319464 *
  10 C       2.2635991 *  2.2061323 *  2.4301471 *  2.7271857 *  2.4098905 *
  11 C       4.5542623    3.6561115    4.8292859    4.4236589    3.4242158  
  12 C       3.5541969    2.4391059 *  4.4090931    4.3726599    3.7573364  
  13 C       2.2907500 *  1.3895213 *  3.4027782    3.7491561    3.4517029  
  14 C       5.4554781    4.4943442    5.6047507    4.9732790    3.9951984  
  15 C       1.3706963 *  2.1640676 *  1.3870289 *  2.3557342 *  2.7799717 *
  16 C       0.0000000    1.3649633 *  2.2271129 *  3.3056389    3.8732985  
  17 C       1.3649633 *  0.0000000    3.1659487    3.8484471    4.0364780  
  18 C       2.2271129 *  3.1659487    0.0000000    1.4015183 *  2.4566525 *
  19 C       3.3056389    3.8484471    1.4015183 *  0.0000000    1.3940584 *
  20 C       3.8732985    4.0364780    2.4566525 *  1.3940584 *  0.0000000  
  21 C       2.1877942 *  3.2007588    1.4008379 *  2.3256038 *  3.5461649  
  22 C       1.3519972 *  2.2644451 *  2.2694644 *  3.3034089    4.2343700  
  23 C       3.0777210    3.6675152    2.1668070 *  2.2685215 *  3.4299111  
  24 C       3.1142319    3.2426479    3.0860623    3.1832474    4.0021597  
  25 C       3.4015333    2.3783365 *  4.3595304    4.3721756    4.3540141  
  26 C       2.2233071 *  1.4072525 *  3.6287459    4.0727396    4.3869083  
  27 C       2.1621201 *  2.2266393 *  3.1105124    3.6872922    4.4256298  
  28 C       4.0026620    2.7959006 *  4.8958336    4.7601063    4.3238382  
  29 C       5.0920105    4.0194053    5.5326933    5.0512969    4.4002309  
  30 C       3.9252189    3.6759511    3.7197306    3.3151520    3.7128952  
  31 C       4.2183202    3.5013351    4.5115813    4.1434947    4.1401877  
  32 C       5.0879535    4.2540650    5.1769544    4.5360461    4.1076364  

               21 C         22 C         23 C         24 C         25 C     

   1 C       4.4892584    5.0904311    3.9906799    4.2719679    4.2778735  
   2 C       2.2285131 *  3.1832817    1.3600845 *  2.1900169 *  3.9564571  
   3 C       3.3233111    3.8944543    2.2581324 *  2.2595762 *  3.3328373  
   4 C       4.3880568    4.8995011    3.5323768    3.5090664    3.6526742  
   5 C       5.4347081    5.7786475    5.0481622    5.0893776    4.3067642  
   6 C       6.0050374    6.1664615    5.4317221    5.1446353    3.9073344  
   7 C       5.3485374    5.5596129    4.5329844    4.1322794    3.3279902  
   8 C       5.1192787    5.2544446    5.0480752    5.0704862    3.9945990  
   9 C       3.9982067    4.2721385    4.1638464    4.4625169    4.0328349  
  10 C       3.3938475    3.3092993    3.8975286    4.0856562    3.6031406  
  11 C       5.5731487    5.3806206    5.4663276    5.1407597    3.3277666  
  12 C       4.9163176    4.4232955    4.9510821    4.4534441    2.3860806 *
  13 C       3.9321628    3.3711930    4.2983740    4.0204876    2.6768838 *
  14 C       6.1793839    6.0391615    5.7709715    5.2728778    3.3544819  
  15 C       2.2246036 *  2.2381674 *  3.0859957    3.5263300    3.9096729  
  16 C       2.1877942 *  1.3519972 *  3.0777210    3.1142319    3.4015333  
  17 C       3.2007588    2.2644451 *  3.6675152    3.2426479    2.3783365 *
  18 C       1.4008379 *  2.2694644 *  2.1668070 *  3.0860623    4.3595304  
  19 C       2.3256038 *  3.3034089    2.2685215 *  3.1832474    4.3721756  
  20 C       3.5461649    4.2343700    3.4299111    4.0021597    4.3540141  
  21 C       0.0000000    1.3820776 *  1.3458909 *  2.2419074 *  4.1759625  
  22 C       1.3820776 *  0.0000000    2.1853736 *  2.2401855 *  3.5299577  
  23 C       1.3458909 *  2.1853736 *  0.0000000    1.3667627 *  3.8066829  
  24 C       2.2419074 *  2.2401855 *  1.3667627 *  0.0000000    2.7660655 *
  25 C       4.1759625    3.5299577    3.8066829    2.7660655 *  0.0000000  
  26 C       3.2466697    2.2991404 *  3.2479707    2.3474989 *  1.4019560 *
  27 C       2.2513415 *  1.3930214 *  2.2085296 *  1.3938031 *  2.4600043 *
  28 C       5.0738541    4.5090141    4.8074523    3.9779486    1.4016647 *
  29 C       5.8007122    5.4848685    5.2877372    4.5103023    2.3007208 *
  30 C       3.3131460    3.4100817    2.2615523 *  1.3978679 *  2.3659093 *
  31 C       4.2923168    4.0463397    3.4944797    2.4655322 *  1.4332434 *
  32 C       5.2736131    5.1585388    4.4890019    3.6980311    2.2614177 *

               26 C         27 C         28 C         29 C         30 C     

   1 C       4.7332378    4.9173209    4.0920485    3.7367569    3.5179152  
   2 C       3.7783756    3.1516130    4.6468788    4.8409264    2.2494354 *
   3 C       3.6521820    3.3611458    3.9343991    3.8302290    1.4320650 *
   4 C       4.2978006    4.3922025    3.7492874    3.2642703    2.4540296 *
   5 C       4.9789221    5.5113982    3.6797447    3.1414590    4.2212242  
   6 C       4.9115563    5.5946857    3.1620225    2.1962361 *  4.0328035  
   7 C       4.3608832    4.8176997    3.0797743    2.1810162 *  2.8688557 *
   8 C       4.4477691    5.1478056    3.2289722    3.1504819    4.4716494  
   9 C       4.0544220    4.4781408    3.6772627    3.9638338    4.2161284  
  10 C       3.2176778    3.6912844    3.4526553    4.2010179    4.2034066  
  11 C       4.0120569    5.0235651    2.2055638 *  2.1914051 *  4.4707679  
  12 C       2.8464465 *  4.0229092    1.4055964 *  2.2576424 *  4.0530343  
  13 C       2.3966546 *  3.3530057    2.3900269 *  3.4438199    4.0563485  
  14 C       4.4269122    5.4031430    2.2332251 *  1.3569941 *  4.2846896  
  15 C       3.0931434    3.0559389    4.2272149    5.0832473    4.0811260  
  16 C       2.2233071 *  2.1621201 *  4.0026620    5.0920105    3.9252189  
  17 C       1.4072525 *  2.2266393 *  2.7959006 *  4.0194053    3.6759511  
  18 C       3.6287459    3.1105124    4.8958336    5.5326933    3.7197306  
  19 C       4.0727396    3.6872922    4.7601063    5.0512969    3.3151520  
  20 C       4.3869083    4.4256298    4.3238382    4.4002309    3.7128952  
  21 C       3.2466697    2.2513415 *  5.0738541    5.8007122    3.3131460  
  22 C       2.2991404 *  1.3930214 *  4.5090141    5.4848685    3.4100817  
  23 C       3.2479707    2.2085296 *  4.8074523    5.2877372    2.2615523 *
  24 C       2.3474989 *  1.3938031 *  3.9779486    4.5103023    1.3978679 *
  25 C       1.4019560 *  2.4600043 *  1.4016647 *  2.3007208 *  2.3659093 *
  26 C       0.0000000    1.3977887 *  2.4647188 *  3.5846202    2.7059202 *
  27 C       1.3977887 *  0.0000000    3.6877111    4.6007720    2.4345779 *
  28 C       2.4647188 *  3.6877111    0.0000000    1.3617316 *  3.3605324  
  29 C       3.5846202    4.6007720    1.3617316 *  0.0000000    3.5050898  
  30 C       2.7059202 *  2.4345779 *  3.3605324    3.5050898    0.0000000  
  31 C       2.4654200 *  2.9052362 *  2.2255710 *  2.2815000 *  1.4068277 *
  32 C       3.5201826    4.1670165    2.1550939 *  1.3718359 *  2.4581358 *

               31 C         32 C     

   1 C       3.7306620    3.3097793  
   2 C       3.3946588    4.0002463  
   3 C       2.3817180 *  2.7851270 *
   4 C       2.7175536 *  2.3762231 *
   5 C       3.9687071    3.1791471  
   6 C       3.4225023    2.2771345 *
   7 C       2.4091083 *  1.3927755 *
   8 C       4.1237062    3.5765880  
   9 C       4.2453446    4.1284319  
  10 C       4.2189319    4.4636113  
  11 C       3.7154835    3.0860194  
  12 C       3.2583998    3.1268653  
  13 C       3.6733303    3.9662740  
  14 C       3.3268675    2.2597894 *
  15 C       4.4704261    5.0681280  
  16 C       4.2183202    5.0879535  
  17 C       3.5013351    4.2540650  
  18 C       4.5115813    5.1769544  
  19 C       4.1434947    4.5360461  
  20 C       4.1401877    4.1076364  
  21 C       4.2923168    5.2736131  
  22 C       4.0463397    5.1585388  
  23 C       3.4944797    4.4890019  
  24 C       2.4655322 *  3.6980311  
  25 C       1.4332434 *  2.2614177 *
  26 C       2.4654200 *  3.5201826  
  27 C       2.9052362 *  4.1670165  
  28 C       2.2255710 *  2.1550939 *
  29 C       2.2815000 *  1.3718359 *
  30 C       1.4068277 *  2.4581358 *
  31 C       0.0000000    1.3899121 *
  32 C       1.3899121 *  0.0000000  

  * ... LESS THAN  3.000


 TOTAL NUMBER OF BASIS SET SHELLS             =   32
 NUMBER OF CARTESIAN GAUSSIAN BASIS FUNCTIONS =  128
 NUMBER OF ELECTRONS                          =  128
 CHARGE OF MOLECULE                           =    0
 SPIN MULTIPLICITY                            =    1
 NUMBER OF OCCUPIED ORBITALS (ALPHA)          =   64
 NUMBER OF OCCUPIED ORBITALS (BETA )          =   64
 TOTAL NUMBER OF ATOMS                        =   32
 THE NUCLEAR REPULSION ENERGY IS     3162.0171125007

 THE PARAMETERS USED IN THIS CALCULATION ARE DESCRIBED IN:

  C: (PM3): J. J. P. STEWART, J. COMP. CHEM. 10, 209 (1989).                    

 THERE ARE   32 HEAVY AND    0 LIGHT ATOMS,
 YIELDING A TOTAL OF     49600 MOPAC 2E- INTEGRALS.

     $CONTRL OPTIONS
     ---------------
 SCFTYP=RHF          RUNTYP=OPTIMIZE     EXETYP=RUN     
 MPLEVL=       0     CITYP =NONE         CCTYP =NONE         VBTYP =NONE    
 DFTTYP=NONE         TDDFT =NONE    
 MULT  =       1     ICHARG=       0     NZVAR =       0     COORD =UNIQUE  
 PP    =NONE         RELWFN=NONE         LOCAL =NONE         NUMGRD=       F
 ISPHER=      -1     NOSYM =       0     MAXIT =     200     UNITS =ANGS    
 PLTORB=       F     MOLPLT=       F     AIMPAC=       F     FRIEND=        
 NPRINT=       7     IREST =       0     GEOM  =INPUT   
 NORMF =       0     NORMP =       0     ITOL  =      20     ICUT  =       9
 INTTYP=BEST         GRDTYP=BEST         QMTTOL= 1.0E-06

     $SYSTEM OPTIONS
     ---------------
  REPLICATED MEMORY=    10000000 WORDS (ON EVERY NODE).
 DISTRIBUTED MEMDDI=           0 MILLION WORDS IN AGGREGATE,
 MEMDDI DISTRIBUTED OVER   2 PROCESSORS IS           0 WORDS/PROCESSOR.
 TOTAL MEMORY REQUESTED ON EACH PROCESSOR=    10000000 WORDS.
 TIMLIM=      525600.00 MINUTES, OR     365.0 DAYS.
 PARALL= T  BALTYP=  DLB     KDIAG=    0  COREFL= F
 MXSEQ2=     300 MXSEQ3=     150  mem10=         0  mem22=         0

          ----------------
          PROPERTIES INPUT
          ----------------

     MOMENTS            FIELD           POTENTIAL          DENSITY
 IEMOM =       1   IEFLD =       0   IEPOT =       0   IEDEN =       0
 WHERE =COMASS     WHERE =NUCLEI     WHERE =NUCLEI     WHERE =NUCLEI  
 OUTPUT=BOTH       OUTPUT=BOTH       OUTPUT=BOTH       OUTPUT=BOTH    
 IEMINT=       0   IEFINT=       0                     IEDINT=       0
                                                       MORB  =       0
          EXTRAPOLATION IN EFFECT
          SOSCF IN EFFECT
 ORBITAL PRINTING OPTION: NPREO=     1   128     2     1

     -------------------------------
     INTEGRAL TRANSFORMATION OPTIONS
     -------------------------------
     NWORD  =            0
     CUTTRF = 1.0E-09     MPTRAN =       0
     DIRTRF =       T     AOINTS =DUP     

          ----------------------
          INTEGRAL INPUT OPTIONS
          ----------------------
 NOPK  =       1 NORDER=       0 SCHWRZ=       T

     ------------------------------------------
     THE POINT GROUP IS C1 , NAXIS= 0, ORDER= 1
     ------------------------------------------

     DIMENSIONS OF THE SYMMETRY SUBSPACES ARE
 A   =  128

 ..... DONE SETTING UP THE RUN .....
 CPU     0: STEP CPU TIME=     0.03 TOTAL CPU TIME=          0.0 (      0.0 MIN)
 TOTAL WALL CLOCK TIME=          0.1 SECONDS, CPU UTILIZATION IS    49.60%


          -----------------------------
          STATIONARY POINT LOCATION RUN
          -----------------------------

 OBTAINING INITIAL HESSIAN, HESS=GUESS   
 CARTESIAN COORDINATE OPTIMIZATION USING BADGER'S RULE FORCE CONSTANT GUESS

          PARAMETERS CONTROLLING GEOMETRY SEARCH ARE
          METHOD =QA                  UPHESS =BFGS    
          NNEG   =         0          NFRZ   =         0
          NSTEP  =       100          IFOLOW =         1
          HESS   =GUESS               RESTAR =         F
          IHREP  =         0          HSSEND =         F
          NPRT   =         0          NPUN   =         0
          OPTTOL = 1.000E-03          RMIN   = 1.500E-03
          RMAX   = 1.000E-01          RLIM   = 7.000E-02
          DXMAX  = 3.000E-01          PURIFY =         F
          MOVIE  =         F          TRUPD  =         T
          TRMAX  = 5.000E-01          TRMIN  = 5.000E-02
          ITBMAT =         5          STPT   =         F
          STSTEP = 1.000E-02          PROJCT=          T

 BEGINNING GEOMETRY SEARCH POINT NSERCH=   0 ...

 COORDINATES OF ALL ATOMS ARE (ANGS)
   ATOM   CHARGE       X              Y              Z
 ------------------------------------------------------------
 C           6.0  -1.2658000000  -1.9830000000   0.5844000000
 C           6.0   1.2692000000  -1.9393000000  -0.5355000000
 C           6.0   0.1455000000  -1.6488000000  -1.3089000000
 C           6.0  -1.1472000000  -1.7984000000  -0.8019000000
 C           6.0  -2.3305000000  -1.2263000000   0.9798000000
 C           6.0  -2.9999000000  -0.6666000000  -0.0635000000
 C           6.0  -2.1899000000  -0.9429000000  -1.1662000000
 C           6.0  -1.8170000000  -0.2341000000   1.7517000000
 C           6.0  -0.4865000000  -0.5253000000   2.0325000000
 C           6.0   0.4757000000   0.4970000000   2.0193000000
 C           6.0  -2.2020000000   0.9763000000   1.1846000000
 C           6.0  -1.1573000000   1.8288000000   0.8204000000
 C           6.0   0.1342000000   1.6981000000   1.3317000000
 C           6.0  -3.0200000000   0.6946000000   0.0796000000
 C           6.0   1.8077000000   0.2172000000   1.7322000000
 C           6.0   2.3403000000   1.2111000000   0.9529000000
 C           6.0   1.2652000000   1.9587000000   0.5677000000
 C           6.0   2.2050000000  -0.9986000000   1.1957000000
 C           6.0   1.1636000000  -1.8768000000   0.8663000000
 C           6.0  -0.1296000000  -1.7433000000   1.3695000000
 C           6.0   3.0032000000  -0.6859000000   0.0878000000
 C           6.0   3.0167000000   0.6843000000  -0.0925000000
 C           6.0   2.3309000000  -1.2016000000  -0.9579000000
 C           6.0   1.8338000000  -0.2186000000  -1.7670000000
 C           6.0  -0.1378000000   1.6719000000  -1.3312000000
 C           6.0   1.1622000000   1.8261000000  -0.8295000000
 C           6.0   2.2223000000   0.9915000000  -1.1948000000
 C           6.0  -1.2866000000   1.9414000000  -0.5747000000
 C           6.0  -2.3679000000   1.2234000000  -0.9865000000
 C           6.0   0.4950000000  -0.4856000000  -2.0676000000
 C           6.0  -0.5006000000   0.5082000000  -2.0851000000
 C           6.0  -1.8344000000   0.2495000000  -1.7920000000

          ********************
          1 ELECTRON INTEGRALS
          ********************

          **************************
          1 AND 2 ELECTRON INTEGRALS
          **************************

 MOPAC ONE- AND TWO-ELECTRON INTEGRALS REQUIRE     66112 WORDS.
 ...... END OF ONE- AND TWO-ELECTRON INTEGRALS......
 CPU     0: STEP CPU TIME=     0.00 TOTAL CPU TIME=          0.0 (      0.0 MIN)
 TOTAL WALL CLOCK TIME=          0.1 SECONDS, CPU UTILIZATION IS    49.60%
 ...... END OF ONE-ELECTRON INTEGRALS ......
 CPU     0: STEP CPU TIME=     0.00 TOTAL CPU TIME=          0.0 (      0.0 MIN)
 TOTAL WALL CLOCK TIME=          0.1 SECONDS, CPU UTILIZATION IS    49.60%

          -------------
          GUESS OPTIONS
          -------------
          GUESS =HUCKEL            NORB  =       0          NORDER=       0
          MIX   =       F          PRTMO =       F          PUNMO =       F
          TOLZ  = 1.0E-08          TOLE  = 1.0E-05
          SYMDEN=       F          PURIFY=       F

 INITIAL GUESS ORBITALS GENERATED BY HUCKEL   ROUTINE.

 SYMMETRIES FOR INITIAL GUESS ORBITALS FOLLOW.   BOTH SET(S).
    64 ORBITALS ARE OCCUPIED (    0 CORE ORBITALS).
     1=A        2=A        3=A        4=A        5=A        6=A        7=A   
     8=A        9=A       10=A       11=A       12=A       13=A       14=A   
    15=A       16=A       17=A       18=A       19=A       20=A       21=A   
    22=A       23=A       24=A       25=A       26=A       27=A       28=A   
    29=A       30=A       31=A       32=A       33=A       34=A       35=A   
    36=A       37=A       38=A       39=A       40=A       41=A       42=A   
    43=A       44=A       45=A       46=A       47=A       48=A       49=A   
    50=A       51=A       52=A       53=A       54=A       55=A       56=A   
    57=A       58=A       59=A       60=A       61=A       62=A       63=A   
    64=A       65=A       66=A       67=A       68=A       69=A       70=A   
    71=A       72=A       73=A       74=A   
 ...... END OF INITIAL ORBITAL SELECTION ......
 CPU     0: STEP CPU TIME=     0.02 TOTAL CPU TIME=          0.0 (      0.0 MIN)
 TOTAL WALL CLOCK TIME=          0.1 SECONDS, CPU UTILIZATION IS    60.10%

          --------------------------
               R-PM3 SCF CALCULATION
          --------------------------

     NUCLEAR ENERGY =      1254.8543669625
     MAXIT =  200     NPUNCH=    2
     EXTRAP=T  DAMP=F  SHIFT=F  RSTRCT=F  DIIS=F  DEM=F  SOSCF=T
     DENSITY MATRIX CONV=  2.00E-05
     SOSCF WILL OPTIMIZE    4096 ORBITAL ROTATIONS, SOGTOL=   0.250
     MEMORY REQUIRED FOR RHF ITERS=    182976 WORDS.

                                                                                   NONZERO     BLOCKS
 ITER EX DEM     TOTAL ENERGY        E CHANGE  DENSITY CHANGE     ORB. GRAD      INTEGRALS    SKIPPED
   1  0  0     -136.7412813562  -136.7412813562   0.167009503   0.000000000              0          0
          ---------------START SECOND ORDER SCF---------------
   2  1  0     -137.7336723649    -0.9923910087   0.050433894   0.025469389              0          0
   3  2  0     -137.8122916580    -0.0786192931   0.024917534   0.007330110              0          0
   4  3  0     -137.8222791444    -0.0099874864   0.013267159   0.005871443              0          0
   5  4  0     -137.8238239659    -0.0015448214   0.006371929   0.004160537              0          0
   6  5  0     -137.8248823948    -0.0010584290   0.014744147   0.002649618              0          0
   7  6  0     -137.8255930944    -0.0007106995   0.004733053   0.000619013              0          0
   8  7  0     -137.8256760863    -0.0000829920   0.004003243   0.000496517              0          0
   9  8  0     -137.8257202131    -0.0000441267   0.002840290   0.000335603              0          0
  10  9  0     -137.8257427334    -0.0000225203   0.002751062   0.000369847              0          0
  11 10  0     -137.8257614046    -0.0000186712   0.003108244   0.000283944              0          0
  12 11  0     -137.8257748996    -0.0000134950   0.001902927   0.000136177              0          0
  13 12  0     -137.8257819962    -0.0000070967   0.001185235   0.000144973              0          0
  14 13  0     -137.8257857055    -0.0000037093   0.000964586   0.000101745              0          0
  15 14  0     -137.8257874646    -0.0000017591   0.000998040   0.000079902              0          0
  16 15  0     -137.8257886496    -0.0000011850   0.000803190   0.000061711              0          0
  17 16  0     -137.8257893986    -0.0000007489   0.000603167   0.000042833              0          0
  18 17  0     -137.8257898295    -0.0000004310   0.000561926   0.000033194              0          0
  19 18  0     -137.8257901034    -0.0000002739   0.000545394   0.000028453              0          0
  20 19  0     -137.8257903135    -0.0000002101   0.000438093   0.000028720              0          0
  21 20  0     -137.8257904559    -0.0000001424   0.000250400   0.000021204              0          0
  22 21  0     -137.8257905339    -0.0000000780   0.000140428   0.000012037              0          0
  23 22  0     -137.8257905749    -0.0000000409   0.000111771   0.000008155              0          0
  24 23  0     -137.8257906002    -0.0000000254   0.000100013   0.000006905              0          0
  25 24  0     -137.8257906166    -0.0000000164   0.000078405   0.000006053              0          0
  26 25  0     -137.8257906254    -0.0000000088   0.000044193   0.000003895              0          0
  27 26  0     -137.8257906290    -0.0000000036   0.000020067   0.000002688              0          0
  28 27  0     -137.8257906302    -0.0000000012   0.000008780   0.000001475              0          0

          -----------------
          DENSITY CONVERGED
          -----------------
     TIME TO FORM FOCK OPERATORS=       0.0 SECONDS (       0.0 SEC/ITER)
     FOCK TIME ON FIRST ITERATION=       0.0, LAST ITERATION=       0.0
     TIME TO SOLVE SCF EQUATIONS=       0.2 SECONDS (       0.0 SEC/ITER)

 FINAL R-PM3 ENERGY IS     -137.8257906302 AFTER  28 ITERATIONS

 HEAT OF FORMATION IS      1061.28937 KCAL/MOL
 

          ------------
          EIGENVECTORS
          ------------

                      1          2          3          4          5
                   -1.9638    -1.8092    -1.6190    -1.5907    -1.4169
                     A          A          A          A          A   
    1  C  1  S    0.167533   0.137752   0.263080   0.106543  -0.101574
    2  C  1  X    0.003408  -0.033205   0.023698   0.001591  -0.077534
    3  C  1  Y    0.048461   0.049472   0.053186   0.039557  -0.001078
    4  C  1  Z   -0.008894  -0.008767  -0.011970   0.054680  -0.008477
    5  C  2  S    0.174152  -0.137520   0.252576  -0.132814  -0.086704
    6  C  2  X   -0.001202  -0.035879  -0.021281   0.001604   0.084367
    7  C  2  Y    0.048397  -0.047757   0.044682  -0.045344   0.003224
    8  C  2  Z    0.009856  -0.008668   0.021088   0.056728   0.012889
    9  C  3  S    0.159695  -0.026287   0.210109  -0.202757  -0.212254
   10  C  3  X    0.008027  -0.053681   0.013659  -0.025252   0.006885
   11  C  3  Y    0.029447  -0.006254   0.003800  -0.058002  -0.030575
   12  C  3  Z    0.024575  -0.001859   0.054747   0.014401  -0.021983
   13  C  4  S    0.162718   0.118178   0.216591  -0.080521  -0.111983
   14  C  4  X    0.002491  -0.040328   0.023319  -0.024423  -0.080207
   15  C  4  Y    0.036595   0.035421   0.015880  -0.032043   0.000947
   16  C  4  Z    0.023206   0.024542   0.051722   0.049548   0.001071
   17  C  5  S    0.178190   0.218220   0.177617   0.142999   0.108518
   18  C  5  X    0.035266   0.025128   0.059503   0.048637  -0.055971
   19  C  5  Y    0.035130   0.051161  -0.009616   0.027160   0.066348
   20  C  5  Z   -0.029056  -0.042211  -0.024788   0.025219  -0.047883
   21  C  6  S    0.176303   0.247966   0.069873   0.007481   0.260977
   22  C  6  X    0.056828   0.072277   0.035792   0.004172   0.043674
   23  C  6  Y    0.023023   0.037481  -0.044450  -0.012707   0.066077
   24  C  6  Z    0.005282   0.007841   0.018005   0.052393   0.012043
   25  C  7  S    0.172883   0.206478   0.080874  -0.117531   0.096189
   26  C  7  X    0.022080   0.005479   0.025837  -0.035006  -0.065704
   27  C  7  Y    0.028212   0.041101  -0.046763  -0.040756   0.046682
   28  C  7  Z    0.038252   0.054123   0.040061   0.025674   0.055719
   29  C  8  S    0.172250   0.182282   0.084743   0.220836   0.025658
   30  C  8  X    0.013988  -0.012664   0.013724   0.047719  -0.087774
   31  C  8  Y   -0.002723  -0.002200  -0.064766  -0.012200   0.018416
   32  C  8  Z   -0.049073  -0.063639  -0.019733  -0.028408  -0.051068
   33  C  9  S    0.157927   0.060468   0.105890   0.271557  -0.183380
   34  C  9  X   -0.003015  -0.048083  -0.015158   0.002190  -0.035356
   35  C  9  Y    0.004580  -0.003122  -0.058979   0.018619  -0.001501
   36  C  9  Z   -0.039902  -0.019850  -0.035602  -0.047526   0.032062
   37  C 10  S    0.159975  -0.053389  -0.070428   0.284447  -0.191109
   38  C 10  X    0.004069  -0.048515  -0.016135  -0.000010   0.029581
   39  C 10  Y   -0.004553  -0.003645  -0.061879  -0.010455   0.000949
   40  C 10  Z   -0.040369   0.018355   0.030048  -0.051689   0.033960
   41  C 11  S    0.171597   0.205042  -0.086441   0.111362   0.124028
   42  C 11  X    0.022952   0.006688  -0.026392   0.036320  -0.059139
   43  C 11  Y   -0.028413  -0.040969  -0.044205  -0.037885  -0.047809
   44  C 11  Z   -0.038756  -0.054943   0.039933   0.024371  -0.058035
   45  C 12  S    0.161575   0.118111  -0.216669   0.083832  -0.088344
   46  C 12  X    0.002773  -0.039984  -0.023460   0.026631  -0.085465
   47  C 12  Y   -0.037795  -0.036303   0.019312  -0.031208  -0.005948
   48  C 12  Z   -0.022420  -0.024333   0.048850   0.047374  -0.001593
   49  C 13  S    0.158415  -0.024443  -0.214463   0.204615  -0.208183
   50  C 13  X    0.007913  -0.052378  -0.014586   0.025075  -0.003944
   51  C 13  Y   -0.031391   0.006348   0.009215  -0.059233   0.030713
   52  C 13  Z   -0.025281   0.001989   0.054547   0.009611   0.026201
   53  C 14  S    0.174403   0.246228  -0.074926  -0.014486   0.270854
   54  C 14  X    0.057151   0.073320  -0.036378  -0.005129   0.050641
   55  C 14  Y   -0.022953  -0.036989  -0.041540  -0.010433  -0.060142
   56  C 14  Z   -0.005739  -0.008961   0.017855   0.051806  -0.007408
   57  C 15  S    0.177679  -0.177720  -0.056801   0.230435   0.011840
   58  C 15  X   -0.013412  -0.014344   0.007853  -0.049506   0.090182
   59  C 15  Y    0.001847  -0.001157  -0.065336   0.019535  -0.019155
   60  C 15  Z   -0.050095   0.061977   0.016139  -0.029033  -0.048787
   61  C 16  S    0.184377  -0.216057  -0.163506   0.161221   0.105072
   62  C 16  X   -0.035633   0.023735   0.053672  -0.055757   0.059287
   63  C 16  Y   -0.035928   0.049866  -0.013766  -0.024456  -0.064499
   64  C 16  Z   -0.030966   0.043251   0.029390   0.022797  -0.051978
   65  C 17  S    0.172487  -0.134915  -0.253271   0.138930  -0.107469
   66  C 17  X   -0.002081  -0.034729   0.021554  -0.005091   0.079312
   67  C 17  Y   -0.049277   0.047830   0.047936  -0.046201   0.002973
   68  C 17  Z   -0.009514   0.009242   0.019119   0.053930  -0.011052
   69  C 18  S    0.175623  -0.198644   0.104265   0.099975   0.111650
   70  C 18  X   -0.023897   0.006753  -0.032123  -0.032851   0.059509
   71  C 18  Y    0.029353  -0.040473  -0.039845   0.042780   0.046165
   72  C 18  Z   -0.040230   0.054107  -0.037654   0.028328  -0.057901
   73  C 19  S    0.161145  -0.109643   0.228218   0.058855  -0.094004
   74  C 19  X   -0.002837  -0.038265  -0.026548  -0.022916   0.081308
   75  C 19  Y    0.039507  -0.035453   0.026630   0.028540   0.002484
   76  C 19  Z   -0.023593   0.023946  -0.044647   0.049621  -0.002195
   77  C 20  S    0.154948   0.028883   0.235640   0.173582  -0.202294
   78  C 20  X   -0.006066  -0.051084  -0.014368  -0.022050  -0.000728
   79  C 20  Y    0.031553   0.007651   0.018040   0.057340  -0.030823
   80  C 20  Z   -0.025722  -0.002671  -0.053839   0.014011   0.026980
   81  C 21  S    0.182285  -0.244383   0.072909  -0.022186   0.270259
   82  C 21  X   -0.059126   0.071769  -0.036886   0.009301  -0.048684
   83  C 21  Y    0.023171  -0.035805  -0.043790   0.015551   0.058883
   84  C 21  Z   -0.006492   0.009837  -0.011003   0.054476  -0.013229
   85  C 22  S    0.180855  -0.242926  -0.075053   0.013234   0.260329
   86  C 22  X   -0.059390   0.072480   0.037217  -0.007480  -0.046060
   87  C 22  Y   -0.023189   0.035755  -0.042245   0.017530  -0.064125
   88  C 22  Z    0.005900  -0.008451  -0.011228   0.053345   0.010264
   89  C 23  S    0.185467  -0.218326   0.159461  -0.167568   0.123504
   90  C 23  X   -0.034556   0.022650  -0.051733   0.054006   0.056736
   91  C 23  Y    0.035898  -0.050046  -0.015156  -0.027210   0.062657
   92  C 23  Z    0.031567  -0.043694   0.030398   0.022069   0.056956
   93  C 24  S    0.173272  -0.175989   0.052864  -0.231720   0.014732
   94  C 24  X   -0.013694  -0.012615  -0.008066   0.048293   0.089841
   95  C 24  Y   -0.001744   0.001138  -0.060771   0.018428   0.012040
   96  C 24  Z    0.050698  -0.062997   0.015439  -0.032954   0.051065
   97  C 25  S    0.157017   0.030680  -0.228351  -0.174184  -0.213662
   98  C 25  X   -0.006781  -0.053492   0.015137   0.024048  -0.003865
   99  C 25  Y   -0.029688  -0.007312   0.012054   0.057305   0.032394
  100  C 25  Z    0.023944   0.002217  -0.050951   0.020993  -0.021472
  101  C 26  S    0.163355  -0.113507  -0.225051  -0.053612  -0.109053
  102  C 26  X   -0.001143  -0.040335   0.023439   0.020126   0.080653
  103  C 26  Y   -0.038208   0.035105   0.022588   0.029374  -0.001081
  104  C 26  Z    0.023705  -0.023804  -0.046078   0.053909  -0.001010
  105  C 27  S    0.174437  -0.199772  -0.102008  -0.103804   0.102828
  106  C 27  X   -0.023434   0.007106   0.030371   0.031298   0.061795
  107  C 27  Y   -0.029797   0.041087  -0.037683   0.044967  -0.049601
  108  C 27  Z    0.040321  -0.054248  -0.038490   0.027408   0.054524
  109  C 28  S    0.169310   0.143490  -0.258444  -0.105638  -0.085436
  110  C 28  X    0.002204  -0.034861  -0.021620   0.001263  -0.084817
  111  C 28  Y   -0.047305  -0.049487   0.048959   0.040212  -0.002601
  112  C 28  Z    0.009740   0.009176  -0.014197   0.056951   0.015707
  113  C 29  S    0.175765   0.218801  -0.173050  -0.146514   0.117446
  114  C 29  X    0.035415   0.026968  -0.057038  -0.048528  -0.052828
  115  C 29  Y   -0.034492  -0.050180  -0.008178   0.028792  -0.059070
  116  C 29  Z    0.029973   0.043748  -0.026108   0.023346   0.058375
  117  C 30  S    0.154729  -0.053806   0.063599  -0.281102  -0.197217
  118  C 30  X    0.003472  -0.046904   0.015217   0.001357   0.037635
  119  C 30  Y    0.004837   0.003579  -0.056706  -0.011582  -0.006779
  120  C 30  Z    0.040755  -0.019064   0.028643  -0.054294  -0.035172
  121  C 31  S    0.152619   0.059882  -0.097856  -0.270774  -0.200867
  122  C 31  X   -0.002614  -0.046406   0.014784  -0.002293  -0.034410
  123  C 31  Y   -0.004782   0.003318  -0.053315   0.018359   0.005900
  124  C 31  Z    0.040600   0.020462  -0.034617  -0.051494  -0.037171
  125  C 32  S    0.167117   0.178223  -0.085058  -0.224336   0.002265
  126  C 32  X    0.014613  -0.010698  -0.012816  -0.047490  -0.088644
  127  C 32  Y    0.002047   0.001976  -0.059073  -0.010438  -0.011774
  128  C 32  Z    0.049285   0.063954  -0.020951  -0.032594   0.047921

                      6          7          8          9         10
                   -1.3986    -1.3538    -1.2443    -1.1965    -1.1255
                     A          A          A          A          A   
    1  C  1  S   -0.210942   0.006070  -0.150049  -0.191723   0.168470
    2  C  1  X    0.058883   0.014045  -0.036316  -0.034349  -0.027421
    3  C  1  Y   -0.053306  -0.022103  -0.036982   0.009812   0.024328
    4  C  1  Z    0.039095  -0.070303  -0.108162   0.080205  -0.061245
    5  C  2  S    0.214226  -0.037880   0.153731  -0.199681  -0.154616
    6  C  2  X    0.052417  -0.023856  -0.032520   0.034140  -0.000311
    7  C  2  Y    0.042312  -0.034037   0.040578   0.013633  -0.010731
    8  C  2  Z    0.053955   0.070083  -0.108089  -0.080430  -0.058047
    9  C  3  S   -0.016850   0.009788   0.282087  -0.059356   0.061730
   10  C  3  X    0.079143  -0.087658   0.035029   0.019619  -0.114853
   11  C  3  Y   -0.013627  -0.014759   0.034223   0.089428   0.001537
   12  C  3  Z    0.013870   0.019656  -0.005368  -0.111305  -0.005255
   13  C  4  S   -0.215385   0.166262   0.144907  -0.187833   0.262139
   14  C  4  X    0.053861  -0.025091   0.025105  -0.021172  -0.010655
   15  C  4  Y   -0.038488   0.044707   0.031177   0.031396   0.027863
   16  C  4  Z   -0.038559  -0.017919  -0.059622  -0.083968   0.013841
   17  C  5  S   -0.208665  -0.128336  -0.077337  -0.001735  -0.009198
   18  C  5  X   -0.041350  -0.028198  -0.086581  -0.003877   0.087386
   19  C  5  Y    0.021095  -0.066409   0.030158   0.060724  -0.087757
   20  C  5  Z    0.063721  -0.063845  -0.060397   0.067143   0.000511
   21  C  6  S   -0.136591   0.047144   0.120386  -0.008168  -0.224787
   22  C  6  X   -0.060090   0.020816   0.017384  -0.015109   0.012496
   23  C  6  Y    0.072306  -0.011686   0.025622   0.037835  -0.123281
   24  C  6  Z   -0.004058  -0.104427  -0.018411   0.004463  -0.019965
   25  C  7  S   -0.183765   0.259793   0.133778   0.008186   0.053718
   26  C  7  X   -0.032684   0.039047   0.012436   0.001040   0.116214
   27  C  7  Y    0.047119   0.049326  -0.013670   0.074041  -0.092451
   28  C  7  Z   -0.058618  -0.005349   0.022275  -0.057653  -0.020898
   29  C  8  S   -0.014643  -0.282105  -0.076627   0.192369   0.022368
   30  C  8  X    0.014576  -0.007039  -0.051767   0.054913   0.073745
   31  C  8  Y    0.077879  -0.022124   0.098047   0.004507   0.008537
   32  C  8  Z    0.017940   0.048936  -0.008204   0.009179   0.025318
   33  C  9  S    0.044620  -0.106601  -0.165521   0.270416   0.011278
   34  C  9  X    0.043247   0.096622   0.030074   0.008863  -0.066179
   35  C  9  Y    0.031771  -0.018600   0.109041   0.067942   0.036597
   36  C  9  Z    0.003844   0.020117   0.043662  -0.005668  -0.001934
   37  C 10  S    0.069962   0.082970   0.159989   0.273475  -0.021697
   38  C 10  X   -0.021132   0.106892   0.032684  -0.010064  -0.064009
   39  C 10  Y   -0.031431  -0.010248   0.111157  -0.064914   0.042137
   40  C 10  Z   -0.001957  -0.019078  -0.045960  -0.005467  -0.000103
   41  C 11  S    0.177035  -0.258173   0.116155   0.008823   0.030732
   42  C 11  X    0.037875  -0.045841   0.010969   0.001517   0.120066
   43  C 11  Y    0.048960   0.044830   0.008834  -0.076854   0.087613
   44  C 11  Z   -0.054494  -0.003650  -0.017017   0.058099   0.031898
   45  C 12  S    0.223215  -0.181763   0.127678  -0.186216   0.268721
   46  C 12  X   -0.046324   0.020445   0.030029  -0.019104   0.014549
   47  C 12  Y   -0.040052   0.047295  -0.027510  -0.028763  -0.025754
   48  C 12  Z   -0.037414  -0.018107   0.060687   0.084507  -0.009140
   49  C 13  S    0.034809  -0.032707   0.278328  -0.059933   0.099651
   50  C 13  X   -0.078522   0.087049   0.039229   0.018105  -0.117256
   51  C 13  Y   -0.014722  -0.010580  -0.039705  -0.087488  -0.003768
   52  C 13  Z    0.009861   0.019488   0.004937   0.108236   0.000092
   53  C 14  S    0.118569  -0.036601   0.108617  -0.012651  -0.254456
   54  C 14  X    0.056103  -0.020484   0.013366  -0.016566  -0.001076
   55  C 14  Y    0.073967  -0.014973  -0.031983  -0.040283   0.105978
   56  C 14  Z   -0.003783  -0.103971   0.015837   0.000613   0.023805
   57  C 15  S    0.047903   0.281532   0.077032   0.193818  -0.028171
   58  C 15  X   -0.016039   0.002062  -0.051424  -0.052987   0.076663
   59  C 15  Y   -0.080472  -0.007550   0.099966  -0.006377   0.015506
   60  C 15  Z    0.006494  -0.052776   0.006202   0.009845  -0.027825
   61  C 16  S   -0.176212   0.173943   0.076504  -0.006938   0.021512
   62  C 16  X    0.031833  -0.034486  -0.087454   0.007075   0.086015
   63  C 16  Y   -0.034578  -0.061965   0.028928  -0.064396  -0.087742
   64  C 16  Z    0.076246   0.048040   0.061045   0.068062  -0.003092
   65  C 17  S   -0.199109   0.035405   0.151074  -0.200259  -0.156569
   66  C 17  X   -0.058362   0.030020  -0.036831   0.030930  -0.028884
   67  C 17  Y    0.043870  -0.033813  -0.039724  -0.011003   0.020222
   68  C 17  Z    0.052658   0.061751   0.108732   0.083104   0.063115
   69  C 18  S    0.227606   0.222215  -0.117331   0.012365  -0.041112
   70  C 18  X   -0.046015  -0.034329   0.013489   0.002595   0.120756
   71  C 18  Y   -0.036180   0.057558   0.011175   0.080948   0.086975
   72  C 18  Z   -0.053747   0.011088   0.015286   0.054940  -0.035218
   73  C 19  S    0.246601   0.127961  -0.138343  -0.193276  -0.267591
   74  C 19  X    0.050398   0.013596   0.031631   0.022665   0.012491
   75  C 19  Y    0.051828   0.039102  -0.027936   0.025459  -0.032333
   76  C 19  Z   -0.034928   0.021621  -0.057016   0.085672   0.004394
   77  C 20  S    0.030156   0.017783  -0.281715  -0.065423  -0.097456
   78  C 20  X    0.093959   0.066318   0.034780  -0.023082  -0.120594
   79  C 20  Y    0.011039  -0.014497  -0.040845   0.084596  -0.006824
   80  C 20  Z    0.007189  -0.020360  -0.002386   0.106255  -0.004410
   81  C 21  S    0.124627   0.025108  -0.106263   0.002635   0.254895
   82  C 21  X   -0.060717  -0.010791   0.011915   0.014070  -0.000782
   83  C 21  Y   -0.078957   0.003247  -0.028650   0.042973   0.101562
   84  C 21  Z    0.017520   0.104878  -0.014343  -0.000400  -0.028328
   85  C 22  S   -0.148166  -0.011140  -0.118066  -0.003770   0.219958
   86  C 22  X    0.064109   0.007606   0.017887   0.016433   0.009925
   87  C 22  Y   -0.070958   0.001372   0.022552  -0.045818  -0.120802
   88  C 22  Z    0.016267   0.103618   0.018907   0.003703   0.027824
   89  C 23  S    0.164558  -0.172893   0.084020  -0.002070   0.057337
   90  C 23  X   -0.035972   0.037867  -0.087943   0.006817   0.089737
   91  C 23  Y   -0.042608  -0.060267  -0.033222   0.062049   0.082391
   92  C 23  Z    0.074195   0.054299  -0.053752  -0.065540   0.022345
   93  C 24  S   -0.050785  -0.283764   0.066841   0.184105  -0.036173
   94  C 24  X    0.008017   0.005851  -0.051680  -0.051982   0.079848
   95  C 24  Y   -0.077605  -0.003056  -0.101313   0.001765  -0.023888
   96  C 24  Z    0.001073  -0.053596  -0.007016  -0.008404   0.029646
   97  C 25  S   -0.012941  -0.016736  -0.277350  -0.058206  -0.055331
   98  C 25  X   -0.092158  -0.068454   0.035829  -0.023726  -0.120938
   99  C 25  Y    0.010482  -0.015596   0.034009  -0.087516   0.005529
  100  C 25  Z    0.011156  -0.023271   0.006606  -0.109371   0.011511
  101  C 26  S   -0.235043  -0.123642  -0.143489  -0.197399  -0.263963
  102  C 26  X   -0.059023  -0.010424   0.022614   0.017927  -0.015770
  103  C 26  Y    0.047762   0.036752   0.030231  -0.026871   0.034119
  104  C 26  Z   -0.032844   0.025078   0.058094  -0.085640  -0.007941
  105  C 27  S   -0.232723  -0.211578  -0.136214  -0.000270  -0.072199
  106  C 27  X    0.039479   0.035855   0.013785   0.003741   0.117550
  107  C 27  Y   -0.029724   0.057578  -0.010077  -0.077338  -0.088558
  108  C 27  Z   -0.058482   0.015862  -0.020936  -0.056719   0.021885
  109  C 28  S    0.219657  -0.007096  -0.159063  -0.189419   0.170251
  110  C 28  X   -0.051805  -0.017804  -0.032020  -0.031468   0.003662
  111  C 28  Y   -0.048254  -0.025383   0.038412  -0.012731  -0.013520
  112  C 28  Z    0.040192  -0.078135   0.101933  -0.081266   0.055146
  113  C 29  S    0.193081   0.139475  -0.083567  -0.009121  -0.047902
  114  C 29  X    0.044713   0.029159  -0.085989  -0.003089   0.090093
  115  C 29  Y    0.026786  -0.069005  -0.032710  -0.055890   0.084708
  116  C 29  Z    0.060605  -0.062102   0.052081  -0.066269  -0.020630
  117  C 30  S   -0.056318  -0.101502   0.153707   0.268147  -0.040379
  118  C 30  X    0.017717  -0.103177   0.027943  -0.012684  -0.062152
  119  C 30  Y   -0.030431  -0.006130  -0.107907   0.059107  -0.032276
  120  C 30  Z   -0.000450  -0.024326   0.047506   0.008776  -0.004817
  121  C 31  S   -0.033837   0.103970  -0.155345   0.268997   0.027217
  122  C 31  X   -0.036871  -0.097776   0.027948   0.010414  -0.065012
  123  C 31  Y    0.030454  -0.012979  -0.106009  -0.060400  -0.024334
  124  C 31  Z    0.004551   0.022195  -0.045639   0.010579   0.006735
  125  C 32  S    0.010093   0.285089  -0.072791   0.184318   0.026509
  126  C 32  X   -0.008936   0.005453  -0.050194   0.056100   0.076589
  127  C 32  Y    0.073541  -0.019601  -0.098875  -0.006627  -0.012398
  128  C 32  Z    0.013180   0.055478   0.006977  -0.008850  -0.027084

                     11         12         13         14         15
                   -1.1091    -1.0979    -1.0409    -1.0245    -0.9392
                     A          A          A          A          A   
    1  C  1  S   -0.028425  -0.022843  -0.142283   0.189909   0.139913
    2  C  1  X   -0.161494  -0.007298   0.033328  -0.042349   0.054863
    3  C  1  Y    0.035582  -0.000628  -0.046479   0.009028   0.003994
    4  C  1  Z   -0.023962  -0.007072  -0.118844  -0.049970   0.120040
    5  C  2  S    0.008022   0.020675  -0.165178  -0.179197  -0.142291
    6  C  2  X    0.149858  -0.082653  -0.037752  -0.034316   0.040345
    7  C  2  Y    0.031113  -0.016306  -0.049914   0.001211  -0.021669
    8  C  2  Z    0.035659  -0.012890   0.118063  -0.059363   0.128221
    9  C  3  S   -0.191369   0.208825  -0.016142  -0.065017  -0.219522
   10  C  3  X    0.019704  -0.014631  -0.157201   0.018590  -0.005687
   11  C  3  Y    0.012414   0.041133   0.011349   0.015695   0.076752
   12  C  3  Z   -0.040891  -0.010260  -0.005134  -0.019237  -0.072777
   13  C  4  S   -0.058015   0.029302   0.188631   0.049421  -0.180849
   14  C  4  X   -0.135280   0.100385  -0.027600  -0.055303  -0.042124
   15  C  4  Y    0.022179  -0.017097   0.055001  -0.038893  -0.001999
   16  C  4  Z    0.018109  -0.025743  -0.069079   0.112938   0.046066
   17  C  5  S    0.245726   0.110886  -0.201282   0.071976   0.048510
   18  C  5  X   -0.033716  -0.018754  -0.082747  -0.004591   0.034870
   19  C  5  Y    0.029231   0.085675   0.016723  -0.092701  -0.037656
   20  C  5  Z   -0.077692   0.046896  -0.057358  -0.119748   0.009712
   21  C  6  S    0.191071  -0.057423   0.033935   0.096696  -0.005886
   22  C  6  X    0.062000  -0.021919   0.010493   0.025908  -0.009875
   23  C  6  Y   -0.097143   0.012266   0.003742  -0.047895   0.020272
   24  C  6  Z    0.060052   0.151561  -0.058999   0.017354   0.010615
   25  C  7  S    0.084604  -0.222479   0.207197  -0.082395  -0.038889
   26  C  7  X   -0.024772   0.043724   0.058537  -0.054551  -0.018509
   27  C  7  Y   -0.049548  -0.072889  -0.037663  -0.101567   0.068112
   28  C  7  Z    0.076769  -0.015209  -0.002208   0.117130  -0.038394
   29  C  8  S    0.055852   0.161060  -0.057535  -0.278295  -0.110000
   30  C  8  X   -0.062631  -0.110010   0.007508  -0.044743  -0.068826
   31  C  8  Y   -0.031205   0.032653   0.159881  -0.052093  -0.037742
   32  C  8  Z   -0.040810  -0.073468   0.017631  -0.007358  -0.036639
   33  C  9  S   -0.119457  -0.174573   0.027374  -0.114722  -0.226180
   34  C  9  X   -0.031954  -0.077836   0.092410   0.131095  -0.033430
   35  C  9  Y    0.049260  -0.024000   0.080015  -0.053253  -0.149811
   36  C  9  Z    0.025323   0.010554   0.019104   0.006420  -0.037054
   37  C 10  S    0.011155  -0.214620   0.045755   0.103597  -0.215370
   38  C 10  X    0.010936   0.077549  -0.079951   0.144593   0.038372
   39  C 10  Y    0.059108  -0.003665  -0.078329  -0.041743   0.155560
   40  C 10  Z   -0.019109   0.022536   0.018066  -0.009008  -0.041860
   41  C 11  S   -0.096304   0.235029   0.191082  -0.087567   0.038981
   42  C 11  X    0.005827  -0.033147   0.063544  -0.054873   0.007285
   43  C 11  Y   -0.066989  -0.066536   0.037647   0.099996   0.062639
   44  C 11  Z    0.072988  -0.017937   0.006225  -0.110760  -0.036049
   45  C 12  S    0.006935  -0.006409   0.191547   0.049711   0.174938
   46  C 12  X    0.134620  -0.103354  -0.018481  -0.047903   0.052681
   47  C 12  Y    0.026949  -0.022053  -0.053153   0.038723   0.003901
   48  C 12  Z    0.017133  -0.024171   0.070030  -0.113829   0.053710
   49  C 13  S    0.166758  -0.207199  -0.001056  -0.059201   0.239751
   50  C 13  X    0.000011   0.000588  -0.157772   0.018299   0.007051
   51  C 13  Y    0.014042   0.043298  -0.012149  -0.010060   0.073753
   52  C 13  Z   -0.047118  -0.007672   0.005632   0.012285  -0.066469
   53  C 14  S   -0.158924   0.051073   0.021515   0.093020   0.031904
   54  C 14  X   -0.061833   0.024877   0.006146   0.024963   0.002635
   55  C 14  Y   -0.112354   0.017142  -0.009893   0.045080   0.002689
   56  C 14  Z    0.056408   0.153651   0.052268  -0.021716   0.011241
   57  C 15  S    0.019288   0.163570  -0.026423   0.286586  -0.112676
   58  C 15  X   -0.001969   0.131295  -0.009370  -0.040239   0.057834
   59  C 15  Y   -0.040335  -0.017833  -0.163390  -0.038671   0.053597
   60  C 15  Z   -0.000505  -0.083036   0.019524   0.006374  -0.034027
   61  C 16  S   -0.166819   0.215222  -0.206812  -0.055084   0.051588
   62  C 16  X   -0.025644   0.033126   0.086111  -0.014934  -0.043493
   63  C 16  Y   -0.011888  -0.086185  -0.029375  -0.090884   0.039933
   64  C 16  Z    0.089858   0.003478  -0.043310   0.126449   0.014498
   65  C 17  S    0.028773  -0.030239  -0.168260  -0.170556   0.137106
   66  C 17  X   -0.142021   0.084137  -0.040379  -0.041362  -0.052959
   67  C 17  Y    0.029225  -0.014585   0.049947   0.001370  -0.012719
   68  C 17  Z    0.014670  -0.020474  -0.108792   0.060566   0.134196
   69  C 18  S    0.189633   0.164737   0.198822   0.074015   0.016230
   70  C 18  X    0.023829   0.026633  -0.061962  -0.046372  -0.011234
   71  C 18  Y   -0.025961   0.090663  -0.023964   0.107701  -0.072104
   72  C 18  Z   -0.077806   0.016024   0.017193   0.108400  -0.035055
   73  C 19  S   -0.019161  -0.003040   0.174973  -0.068047   0.192760
   74  C 19  X    0.164570   0.030515   0.017839  -0.047177  -0.062973
   75  C 19  Y    0.032439   0.007613   0.054830   0.030950  -0.010834
   76  C 19  Z   -0.029661  -0.013504   0.073406   0.105427   0.045092
   77  C 20  S   -0.243913  -0.104933  -0.006807   0.058705   0.242010
   78  C 20  X   -0.007256  -0.000449   0.151285  -0.000393   0.006812
   79  C 20  Y   -0.011538  -0.042460   0.008051  -0.011304  -0.080690
   80  C 20  Z    0.035991  -0.024133   0.003099  -0.014184  -0.075117
   81  C 21  S    0.169250  -0.025797   0.025104  -0.089999   0.028894
   82  C 21  X   -0.069498   0.006980  -0.001918   0.023556   0.000768
   83  C 21  Y   -0.113236   0.038141   0.014299   0.045555  -0.001743
   84  C 21  Z    0.017407   0.166796   0.051620   0.021007  -0.007033
   85  C 22  S   -0.200861   0.035091   0.032966  -0.103077  -0.001589
   86  C 22  X    0.065308  -0.008902  -0.005311   0.028234   0.008693
   87  C 22  Y   -0.089343   0.036067  -0.011560  -0.051400  -0.022483
   88  C 22  Z    0.012516   0.163770  -0.062659  -0.013988  -0.000157
   89  C 23  S    0.157443  -0.221889  -0.201297  -0.047132  -0.048714
   90  C 23  X    0.015762  -0.030119   0.086672  -0.013537   0.056561
   91  C 23  Y   -0.032593  -0.084248   0.036639   0.089715   0.052409
   92  C 23  Z    0.100800   0.009066   0.037733  -0.124517   0.006771
   93  C 24  S   -0.035401  -0.170940  -0.016518   0.281697   0.108704
   94  C 24  X   -0.005159  -0.124555   0.001130  -0.044654  -0.048045
   95  C 24  Y   -0.030525  -0.010201   0.162763   0.031833   0.042452
   96  C 24  Z   -0.004378  -0.085351  -0.014434  -0.005233  -0.034103
   97  C 25  S    0.265484   0.103552  -0.011146   0.071367  -0.214898
   98  C 25  X    0.025823   0.004107   0.147216   0.004862  -0.004775
   99  C 25  Y   -0.008265  -0.043175  -0.009916   0.015258  -0.082528
  100  C 25  Z    0.032455  -0.027474  -0.002093   0.019229  -0.076047
  101  C 26  S    0.075959   0.005165   0.166789  -0.062343  -0.200259
  102  C 26  X   -0.163247  -0.027619   0.022397  -0.059225   0.041088
  103  C 26  Y    0.025831   0.005901  -0.055165  -0.031524  -0.001179
  104  C 26  Z   -0.022717  -0.013272  -0.078708  -0.104906   0.041685
  105  C 27  S   -0.174740  -0.157031   0.212988   0.054719  -0.034926
  106  C 27  X   -0.042518  -0.025371  -0.056866  -0.049876   0.027249
  107  C 27  Y   -0.004357   0.090816   0.016893  -0.102946  -0.078729
  108  C 27  Z   -0.075505   0.020452  -0.013618  -0.113793  -0.037438
  109  C 28  S   -0.003144   0.021853  -0.145721   0.191719  -0.147254
  110  C 28  X    0.169336   0.009952   0.037609  -0.033982  -0.040538
  111  C 28  Y    0.035876   0.002372   0.046701  -0.002311   0.012916
  112  C 28  Z   -0.037872   0.006170   0.120261   0.050586   0.111380
  113  C 29  S   -0.236531  -0.128104  -0.201149   0.064677  -0.057952
  114  C 29  X    0.018771   0.015222  -0.082563  -0.005191  -0.048189
  115  C 29  Y    0.008887   0.088516  -0.023328   0.089275  -0.042932
  116  C 29  Z   -0.082688   0.050173   0.045309   0.118648   0.007855
  117  C 30  S   -0.026148   0.211768   0.032969   0.112218   0.221336
  118  C 30  X   -0.008036  -0.087852  -0.074348   0.140416  -0.043259
  119  C 30  Y    0.065207   0.001408   0.077758   0.041618   0.138154
  120  C 30  Z   -0.021210   0.023218  -0.019909   0.010153  -0.042056
  121  C 31  S    0.117058   0.177968   0.025032  -0.113569   0.231535
  122  C 31  X    0.033228   0.082564   0.081955   0.133640   0.038650
  123  C 31  Y    0.057237  -0.029074  -0.075718   0.050630  -0.134529
  124  C 31  Z    0.029568   0.012788  -0.018256  -0.007124  -0.036653
  125  C 32  S   -0.046615  -0.163869  -0.046594  -0.280165   0.102877
  126  C 32  X    0.051593   0.110993   0.004549  -0.044996   0.061902
  127  C 32  Y   -0.021375   0.023100  -0.156206   0.051528  -0.042391
  128  C 32  Z   -0.034849  -0.078904  -0.015194   0.002944  -0.039027

                     16         17         18         19         20
                   -0.9226    -0.9033    -0.8900    -0.8536    -0.8517
                     A          A          A          A          A   
    1  C  1  S    0.044981  -0.052843  -0.154157  -0.073131  -0.196318
    2  C  1  X    0.029966   0.160165  -0.076622   0.094398  -0.035453
    3  C  1  Y   -0.044343  -0.043763   0.000718  -0.011482   0.014513
    4  C  1  Z   -0.137856   0.027742   0.005524   0.040066   0.012145
    5  C  2  S    0.073106  -0.044571   0.142988  -0.087358  -0.187188
    6  C  2  X   -0.045361  -0.151940  -0.085771  -0.116609   0.063573
    7  C  2  Y   -0.049991  -0.034749  -0.000882  -0.013589   0.023451
    8  C  2  Z    0.125211  -0.041579  -0.013901  -0.037039  -0.014109
    9  C  3  S   -0.044565   0.180503  -0.004106   0.084209   0.047886
   10  C  3  X   -0.088381  -0.024223   0.181435  -0.053387  -0.119727
   11  C  3  Y   -0.100362  -0.020394   0.000896  -0.054165   0.100358
   12  C  3  Z    0.122256   0.041625   0.001892   0.047671  -0.126588
   13  C  4  S    0.130159  -0.036430  -0.187361   0.046869   0.064673
   14  C  4  X    0.054353   0.175827  -0.083041   0.098350  -0.032165
   15  C  4  Y   -0.054383  -0.046954   0.009259   0.018492   0.089545
   16  C  4  Z    0.073508  -0.020067  -0.004081  -0.086511  -0.161849
   17  C  5  S    0.032935  -0.090016   0.124993   0.004653   0.055423
   18  C  5  X   -0.086864  -0.095150  -0.117252   0.015271  -0.090821
   19  C  5  Y    0.057833   0.081026   0.039664   0.131365   0.089971
   20  C  5  Z   -0.050725   0.005304  -0.105318   0.159101  -0.004897
   21  C  6  S   -0.009866   0.207834   0.229662  -0.126421   0.037921
   22  C  6  X   -0.006205  -0.064181   0.056557  -0.022772   0.007760
   23  C  6  Y   -0.013320   0.175454  -0.122335   0.055915  -0.033729
   24  C  6  Z    0.147647   0.022337   0.021604   0.026386   0.122323
   25  C  7  S   -0.160371  -0.112443   0.081599   0.061876   0.038059
   26  C  7  X    0.050836  -0.091601  -0.100337   0.073762   0.112496
   27  C  7  Y   -0.081109   0.065937   0.012062   0.098439  -0.105782
   28  C  7  Z    0.021008   0.013251   0.078846  -0.134447  -0.015642
   29  C  8  S   -0.003680  -0.086151  -0.023112   0.220351  -0.030789
   30  C  8  X   -0.139044  -0.028087  -0.030918  -0.119491  -0.081038
   31  C  8  Y    0.119594  -0.006965   0.020772   0.003633  -0.059434
   32  C  8  Z   -0.060830   0.003037  -0.013136  -0.061412  -0.033940
   33  C  9  S   -0.186439   0.048359  -0.006989  -0.173037   0.096047
   34  C  9  X    0.074922   0.068831   0.062468  -0.112407   0.129362
   35  C  9  Y    0.104362  -0.028380   0.033659  -0.088929  -0.103183
   36  C  9  Z    0.028624  -0.015200   0.014142  -0.017158  -0.004453
   37  C 10  S    0.198789   0.036542  -0.017119  -0.189995  -0.001833
   38  C 10  X    0.073135  -0.065826  -0.064583   0.148076   0.069050
   39  C 10  Y    0.093756   0.017563  -0.041519   0.041204  -0.141450
   40  C 10  Z   -0.028171  -0.013170   0.016456  -0.017469   0.019161
   41  C 11  S    0.153099  -0.117482  -0.088571   0.059813  -0.019831
   42  C 11  X   -0.053928  -0.100912   0.095457   0.002313  -0.121502
   43  C 11  Y   -0.084094  -0.076770  -0.000499  -0.136902  -0.035199
   44  C 11  Z    0.016052  -0.011365   0.081140   0.096510  -0.079876
   45  C 12  S   -0.136251  -0.068933   0.181723  -0.006593  -0.066859
   46  C 12  X   -0.052707   0.168822   0.099024   0.080840  -0.050329
   47  C 12  Y   -0.049105   0.050022   0.012252   0.021791   0.071900
   48  C 12  Z    0.069205   0.009152  -0.004167  -0.003524  -0.186417
   49  C 13  S    0.042306   0.154829   0.020458   0.036700  -0.122556
   50  C 13  X    0.093149  -0.011553  -0.176355   0.030223   0.132932
   51  C 13  Y   -0.101402   0.012323   0.008758   0.095090   0.066789
   52  C 13  Z    0.118926  -0.039519  -0.004891  -0.099386  -0.086809
   53  C 14  S    0.016236   0.218933  -0.228332  -0.115011   0.016000
   54  C 14  X    0.007815  -0.057904  -0.057391  -0.016814   0.014271
   55  C 14  Y   -0.013753  -0.170046  -0.130539  -0.054020   0.005482
   56  C 14  Z    0.145656  -0.027227   0.021743   0.053228   0.135904
   57  C 15  S    0.013937  -0.085720  -0.021932   0.197433  -0.066078
   58  C 15  X   -0.142621   0.031554   0.037690   0.063610  -0.130001
   59  C 15  Y    0.119901   0.015089  -0.034782  -0.069327  -0.041416
   60  C 15  Z    0.059967  -0.000873  -0.012274  -0.032819   0.060777
   61  C 16  S   -0.024487  -0.068448   0.126362  -0.082096  -0.038945
   62  C 16  X   -0.072474   0.099074   0.126981  -0.057885  -0.077434
   63  C 16  Y    0.046127  -0.086630  -0.040318  -0.069175   0.141311
   64  C 16  Z    0.041632   0.002057  -0.109181   0.133922  -0.065387
   65  C 17  S   -0.073901  -0.047406  -0.145759   0.034688   0.207337
   66  C 17  X    0.039128  -0.156454   0.065963  -0.128085   0.023027
   67  C 17  Y   -0.047402   0.040277   0.004747   0.022205   0.007087
   68  C 17  Z    0.131464   0.023766  -0.002798   0.024348  -0.030164
   69  C 18  S   -0.166412  -0.133132  -0.066673   0.115946  -0.019587
   70  C 18  X   -0.058059   0.097567  -0.096604  -0.062426  -0.105056
   71  C 18  Y   -0.079629   0.076955  -0.002100   0.100591  -0.097487
   72  C 18  Z   -0.005809  -0.008482   0.088041   0.119439   0.028888
   73  C 19  S    0.133378  -0.065775   0.176966   0.032603   0.060958
   74  C 19  X   -0.055541  -0.177134  -0.084252  -0.059761  -0.006176
   75  C 19  Y   -0.048924  -0.053561  -0.001773   0.024083   0.070316
   76  C 19  Z   -0.079463   0.016937   0.008910   0.082131   0.162812
   77  C 20  S   -0.063124   0.175982   0.018926   0.041890   0.094252
   78  C 20  X    0.104460   0.014846   0.171662   0.033458   0.126664
   79  C 20  Y   -0.094271  -0.006656  -0.000131  -0.051684   0.101833
   80  C 20  Z   -0.110131  -0.034762   0.009775  -0.040131   0.122455
   81  C 21  S   -0.036805   0.216430  -0.227542  -0.100016   0.035793
   82  C 21  X    0.014516   0.060657   0.060331   0.016492   0.001925
   83  C 21  Y    0.000796   0.166918   0.135776   0.052721  -0.029954
   84  C 21  Z   -0.145112  -0.039059   0.035291   0.007926  -0.156218
   85  C 22  S    0.038768   0.203572   0.229865  -0.128125   0.018272
   86  C 22  X   -0.010680   0.060927  -0.052800   0.020694  -0.004800
   87  C 22  Y   -0.005952  -0.173638   0.118669  -0.071417  -0.000479
   88  C 22  Z   -0.143045   0.040627   0.037547  -0.070395  -0.112102
   89  C 23  S    0.023662  -0.052370  -0.122373  -0.031639   0.117161
   90  C 23  X    0.075534   0.097761  -0.127494  -0.004691   0.089747
   91  C 23  Y    0.051718   0.079547  -0.025729   0.134227   0.088591
   92  C 23  Z    0.035108   0.003608  -0.128231  -0.149823  -0.005864
   93  C 24  S   -0.006380  -0.103572   0.039462   0.211523  -0.027041
   94  C 24  X    0.141195   0.037401  -0.030513   0.113615   0.088936
   95  C 24  Y    0.113994  -0.023295  -0.043517   0.028799  -0.099467
   96  C 24  Z    0.060623   0.004482  -0.010057   0.062272   0.041128
   97  C 25  S    0.070918   0.201648  -0.000581  -0.002355  -0.066681
   98  C 25  X   -0.107046   0.026351  -0.173912  -0.017530  -0.122198
   99  C 25  Y   -0.089962   0.018895   0.010545   0.095886   0.059535
  100  C 25  Z   -0.114114   0.043962   0.018384   0.099530   0.089443
  101  C 26  S   -0.137252  -0.033463  -0.181696   0.016309  -0.072769
  102  C 26  X    0.051339  -0.190867   0.065981  -0.063660   0.006733
  103  C 26  Y   -0.049580   0.051488   0.002737   0.014960   0.084436
  104  C 26  Z   -0.080578  -0.016422   0.004706   0.008292   0.180959
  105  C 27  S    0.162127  -0.139111   0.056765   0.086036  -0.078152
  106  C 27  X    0.059519   0.091106   0.100972  -0.015738   0.128924
  107  C 27  Y   -0.081987  -0.064952  -0.013505  -0.131116  -0.042410
  108  C 27  Z   -0.009662   0.009901   0.078803  -0.102750   0.078105
  109  C 28  S   -0.035925  -0.046830   0.150740   0.016488   0.202329
  110  C 28  X   -0.027865   0.162375   0.101342   0.097410   0.008116
  111  C 28  Y   -0.046024   0.038436   0.006486   0.013635   0.016044
  112  C 28  Z   -0.138776  -0.038027  -0.002043  -0.031876   0.038286
  113  C 29  S   -0.033233  -0.073895  -0.127399  -0.025658  -0.098034
  114  C 29  X    0.085509  -0.101409   0.110912   0.054128   0.069004
  115  C 29  Y    0.061411  -0.078180   0.020354  -0.070978   0.138162
  116  C 29  Z   -0.046228   0.007388  -0.118590  -0.136433   0.078403
  117  C 30  S   -0.196987   0.015486   0.006739  -0.169853   0.074202
  118  C 30  X   -0.064700  -0.068792   0.077745   0.104499  -0.119485
  119  C 30  Y    0.092565  -0.029591  -0.052403  -0.097647  -0.093447
  120  C 30  Z   -0.032031   0.017755   0.020162   0.023371   0.006622
  121  C 31  S    0.182030   0.020755  -0.012588  -0.198622   0.011780
  122  C 31  X   -0.071048   0.072681  -0.067846  -0.162630  -0.052224
  123  C 31  Y    0.109480   0.035134   0.044312   0.025946  -0.119052
  124  C 31  Z    0.034851   0.020335   0.016991   0.010314  -0.010835
  125  C 32  S   -0.000700  -0.105603   0.032513   0.208353  -0.083105
  126  C 32  X    0.136238  -0.035084   0.018321  -0.060327   0.130920
  127  C 32  Y    0.121154   0.006323   0.027010  -0.038908  -0.075637
  128  C 32  Z   -0.062206   0.000798  -0.004219   0.042208  -0.061736

                     21         22         23         24         25
                   -0.8379    -0.7915    -0.7825    -0.7383    -0.7242
                     A          A          A          A          A   
    1  C  1  S    0.006320  -0.137655   0.159251   0.027038   0.077128
    2  C  1  X    0.119435   0.031907   0.017715   0.121736  -0.127880
    3  C  1  Y   -0.035132  -0.020799  -0.047505  -0.018854   0.039274
    4  C  1  Z   -0.018247  -0.132886  -0.172363  -0.051339  -0.025808
    5  C  2  S    0.037155  -0.108525  -0.175236  -0.017975   0.076979
    6  C  2  X    0.102708  -0.028827   0.011462   0.114225   0.088113
[...]
   35  C  9  Y   -0.014827  -0.053261  -0.031620   0.086851   0.041541
   36  C  9  Z    0.040311   0.190821   0.210029  -0.273436  -0.081420
   37  C 10  S   -0.001551  -0.022170  -0.056266   0.056490   0.043200
   38  C 10  X    0.001977   0.025043  -0.006036  -0.052382  -0.060050
   39  C 10  Y    0.014840  -0.053337  -0.031201   0.086783   0.041690
   40  C 10  Z    0.040068  -0.191073  -0.209603   0.273547   0.081611
   41  C 11  S    0.007453  -0.020130  -0.022677   0.097886   0.125391
   42  C 11  X    0.048042   0.103581  -0.000142  -0.149884  -0.114350
   43  C 11  Y   -0.084125  -0.115574  -0.062195   0.141561   0.080760
   44  C 11  Z   -0.111204  -0.177347  -0.039026   0.166345   0.089708
   45  C 12  S    0.003152  -0.006043   0.084536  -0.032532  -0.089612
   46  C 12  X   -0.025864  -0.006407  -0.091417   0.080737   0.055284
   47  C 12  Y    0.126748  -0.035646   0.290425  -0.094104   0.021584
   48  C 12  Z    0.079221   0.006368   0.102435  -0.098230   0.047207
   49  C 13  S    0.000527   0.017778   0.006676  -0.031678  -0.046983
   50  C 13  X   -0.000042  -0.014810   0.062360  -0.015195  -0.061396
   51  C 13  Y   -0.069363   0.010923  -0.140648  -0.006490  -0.124512
   52  C 13  Z   -0.067424   0.046848  -0.101644  -0.089718  -0.135684
   53  C 14  S   -0.048557  -0.042212  -0.028446  -0.049095  -0.105094
   54  C 14  X    0.262750   0.203324   0.066134   0.076744   0.209780
   55  C 14  Y   -0.062457  -0.056205  -0.020634  -0.084025  -0.041755
   56  C 14  Z   -0.036298  -0.005004  -0.010961  -0.029119  -0.060237
   57  C 15  S   -0.004919  -0.031482   0.001932   0.075845   0.080658
   58  C 15  X    0.014343  -0.092405   0.040833   0.079919   0.079994
   59  C 15  Y   -0.032527   0.013683   0.011059  -0.008893  -0.016173
   60  C 15  Z    0.046970  -0.171965   0.143388   0.053301   0.106881
   61  C 16  S    0.038129   0.005138   0.037133  -0.072861  -0.032023
   62  C 16  X    0.097679  -0.000489   0.024857  -0.072203  -0.031726
   63  C 16  Y    0.152795  -0.068357   0.033717  -0.033198  -0.066626
   64  C 16  Z    0.101585  -0.003623   0.004611  -0.061080  -0.108565
   65  C 17  S   -0.030160   0.016401  -0.075260   0.029429   0.088352
   66  C 17  X   -0.057410   0.037299  -0.011838   0.013532   0.018302
   67  C 17  Y   -0.246746   0.237633  -0.109332   0.011337   0.163136
   68  C 17  Z   -0.065288   0.031505   0.016059   0.033534   0.029216
   69  C 18  S    0.007503   0.020075   0.022884  -0.097898  -0.125509
   70  C 18  X   -0.047993   0.103648  -0.000072  -0.149940  -0.114644
   71  C 18  Y    0.084056  -0.115572  -0.062328   0.141558   0.080963
   72  C 18  Z   -0.111137   0.177411   0.039255  -0.166474  -0.089941
   73  C 19  S    0.003105   0.006138  -0.084695   0.032511   0.089685
   74  C 19  X    0.025750  -0.006286  -0.091535   0.080631   0.055295
   75  C 19  Y   -0.126373  -0.035907   0.290233  -0.093709   0.021591
   76  C 19  Z    0.079074  -0.006258  -0.102302   0.098127  -0.047164
   77  C 20  S    0.000625  -0.017806  -0.007103   0.031794   0.046839
   78  C 20  X    0.000025  -0.014866   0.062596  -0.015222  -0.061411
   79  C 20  Y    0.069101   0.010800  -0.140337  -0.006395  -0.124453
   80  C 20  Z   -0.067231  -0.046881   0.101172   0.089862   0.135710
   81  C 21  S   -0.048591   0.042264   0.028391   0.048987   0.105203
   82  C 21  X   -0.262826   0.203575   0.066188   0.076568   0.209835
   83  C 21  Y    0.062630  -0.056346  -0.020684  -0.084037  -0.041840
   84  C 21  Z   -0.036202   0.004981   0.010870   0.029157   0.060256
   85  C 22  S    0.048605  -0.042315  -0.027481   0.049713  -0.105213
   86  C 22  X    0.262741  -0.203528  -0.064589   0.077984  -0.209866
   87  C 22  Y    0.062492  -0.056298  -0.018997   0.084480  -0.041798
   88  C 22  Z   -0.036315   0.005069   0.010365  -0.029286   0.060364
   89  C 23  S   -0.038094  -0.005074  -0.038491  -0.071868   0.032038
   90  C 23  X   -0.097535   0.000443  -0.026342  -0.071463   0.031716
   91  C 23  Y    0.152616  -0.068314   0.034524   0.032360  -0.066627
   92  C 23  Z    0.101515  -0.003609   0.005844   0.060780  -0.108576
   93  C 24  S    0.004969   0.031347  -0.000796   0.075590  -0.080666
   94  C 24  X   -0.014155   0.092367  -0.039500   0.080589  -0.080159
   95  C 24  Y   -0.032539   0.013712   0.011256   0.008789  -0.016186
   96  C 24  Z    0.046464  -0.171617   0.143005  -0.055634   0.107020
   97  C 25  S   -0.000647   0.017732   0.007571   0.031450  -0.046771
   98  C 25  X    0.000041   0.014833  -0.062788  -0.013988   0.061478
   99  C 25  Y    0.069376   0.010797  -0.140497   0.009128  -0.124605
  100  C 25  Z   -0.067515  -0.046862   0.099669  -0.091823   0.135919
  101  C 26  S   -0.003310  -0.006010   0.085358   0.030940  -0.089723
  102  C 26  X   -0.025814   0.006421   0.092870   0.078755  -0.055290
  103  C 26  Y   -0.126801  -0.035429   0.292007   0.088319   0.021534
  104  C 26  Z    0.079142  -0.006371  -0.104301  -0.096267  -0.047030
  105  C 27  S   -0.007484  -0.020051  -0.024604  -0.097397   0.125573
  106  C 27  X    0.047936  -0.103602  -0.002778  -0.149907   0.114696
  107  C 27  Y    0.084113  -0.115610  -0.065108  -0.140305   0.080987
  108  C 27  Z   -0.111149   0.177455   0.042306   0.165572  -0.090074
  109  C 28  S    0.030435   0.016547  -0.075846  -0.027800   0.088371
  110  C 28  X   -0.057301  -0.037174   0.011908   0.013200  -0.018320
  111  C 28  Y    0.246941   0.237431  -0.109294  -0.008922   0.163039
  112  C 28  Z   -0.065314  -0.031493  -0.015296   0.033729  -0.029185
  113  C 29  S   -0.038226   0.005078   0.038480   0.071901  -0.032091
  114  C 29  X    0.097776   0.000452  -0.026143  -0.071487   0.031759
  115  C 29  Y   -0.152997  -0.068300   0.034213   0.032325  -0.066627
  116  C 29  Z    0.101690   0.003611  -0.005719  -0.060765   0.108545
  117  C 30  S    0.001513   0.022397   0.057898   0.055728  -0.043277
  118  C 30  X   -0.002028  -0.025058   0.005026  -0.052475   0.060097
  119  C 30  Y    0.014776  -0.053289  -0.033380  -0.086182   0.041572
  120  C 30  Z    0.040156  -0.190901  -0.215497  -0.269178   0.081498
  121  C 31  S    0.001538  -0.022313  -0.057657  -0.055600   0.043262
  122  C 31  X    0.001951  -0.025041   0.004951  -0.052436   0.060072
  123  C 31  Y   -0.014843  -0.053381  -0.033101  -0.086228   0.041659
  124  C 31  Z    0.040208   0.191061   0.214952   0.269356  -0.081776
  125  C 32  S    0.004889  -0.031387   0.000549  -0.075617   0.080662
  126  C 32  X    0.014448   0.092386  -0.039257   0.080575  -0.080069
  127  C 32  Y    0.032579   0.013682   0.011274   0.008723  -0.016133
  128  C 32  Z    0.047191   0.171795  -0.142313   0.055842  -0.106902

                     71         72         73         74
                   -0.0497    -0.0414    -0.0390    -0.0387
                     A          A          A          A   
    1  C  1  S    0.026045  -0.064692  -0.109293   0.154744
    2  C  1  X    0.017396   0.070740   0.051068  -0.062957
    3  C  1  Y   -0.110559   0.029033   0.120518  -0.262190
    4  C  1  Z    0.020722  -0.021914  -0.046395   0.035767
    5  C  2  S    0.026152   0.065966  -0.109340   0.154534
    6  C  2  X   -0.017295   0.071268  -0.050981   0.062611
    7  C  2  Y   -0.110441  -0.030781   0.120848  -0.262160
    8  C  2  Z   -0.020646  -0.022234   0.046294  -0.035570
    9  C  3  S   -0.084320   0.009306   0.059725  -0.022548
   10  C  3  X   -0.026555  -0.016087   0.027384  -0.081852
   11  C  3  Y    0.160267  -0.060485  -0.082060   0.040048
   12  C  3  Z    0.160159  -0.089263  -0.031190  -0.015567
   13  C  4  S   -0.011062   0.014493  -0.004682  -0.078944
   14  C  4  X    0.051943  -0.011748   0.004456   0.034427
   15  C  4  Y   -0.066976   0.040910   0.025365   0.149510
   16  C  4  Z   -0.045872   0.033036   0.085537  -0.035607
   17  C  5  S    0.054215   0.154199   0.166298  -0.140445
   18  C  5  X   -0.004885  -0.149465  -0.145798   0.143015
   19  C  5  Y    0.028502  -0.084805  -0.091520   0.178522
   20  C  5  Z    0.012530   0.103381   0.072313  -0.128715
   21  C  6  S   -0.039726  -0.148727  -0.204857   0.055920
   22  C  6  X    0.021186   0.193367   0.193068  -0.038142
   23  C  6  Y    0.037149   0.065404   0.065941  -0.076108
   24  C  6  Z    0.028766  -0.020917   0.007890   0.027302
   25  C  7  S    0.106207  -0.006074   0.069246  -0.028652
   26  C  7  X   -0.088314  -0.033914  -0.111693   0.012773
   27  C  7  Y   -0.055892   0.007644  -0.048477  -0.060966
   28  C  7  Z   -0.139645   0.125237   0.037237  -0.024071
   29  C  8  S   -0.128076  -0.108330  -0.062539   0.082272
   30  C  8  X    0.115150   0.123632   0.050358  -0.056248
   31  C  8  Y   -0.008647   0.064644   0.084143  -0.074346
   32  C  8  Z   -0.216916  -0.171347  -0.039271   0.029124
   33  C  9  S    0.076223   0.036403   0.022121  -0.022817
   34  C  9  X   -0.063774  -0.049213  -0.009163   0.032931
   35  C  9  Y   -0.103400  -0.050550   0.006246  -0.000811
   36  C  9  Z    0.143666   0.103699   0.072520  -0.016858
   37  C 10  S    0.076204   0.036381  -0.023105  -0.021362
   38  C 10  X    0.063961   0.049398  -0.010970  -0.032358
   39  C 10  Y    0.103687   0.050712   0.006751   0.000368
   40  C 10  Z    0.144379   0.104350  -0.072845  -0.012377
   41  C 11  S    0.106426   0.005829  -0.071244  -0.024818
   42  C 11  X   -0.088271   0.034063   0.112562   0.006140
   43  C 11  Y    0.056105   0.008015  -0.044742   0.063617
   44  C 11  Z    0.140022   0.125220   0.038269   0.020679
   45  C 12  S   -0.011327  -0.014970  -0.000226  -0.078895
   46  C 12  X    0.052398   0.012010  -0.002411   0.034486
   47  C 12  Y    0.066269   0.039789   0.015952  -0.151623
   48  C 12  Z    0.045678   0.033112   0.087844   0.029989
   49  C 13  S   -0.084634  -0.009395  -0.061118  -0.018621
   50  C 13  X   -0.026716   0.015698  -0.032404  -0.079930
   51  C 13  Y   -0.160006  -0.060477  -0.084255  -0.034141
   52  C 13  Z   -0.159863  -0.088950  -0.030165   0.018392
   53  C 14  S   -0.039545   0.149043   0.208122   0.042797
   54  C 14  X    0.020793  -0.193561  -0.195197  -0.025713
   55  C 14  Y   -0.037030   0.065801   0.070759   0.071661
   56  C 14  Z   -0.028791  -0.021001   0.006272  -0.027333
   57  C 15  S   -0.128046  -0.108613   0.067068   0.078271
   58  C 15  X   -0.115092  -0.123716   0.053238   0.052868
   59  C 15  Y    0.008657  -0.065005   0.088559   0.068950
   60  C 15  Z   -0.217141  -0.171369   0.039802   0.026346
   61  C 16  S    0.054001   0.154856  -0.174492  -0.129842
   62  C 16  X    0.004696   0.149942  -0.154140  -0.133643
   63  C 16  Y   -0.028727   0.085126  -0.102303  -0.172527
   64  C 16  Z    0.012445   0.103590  -0.079784  -0.123914
   65  C 17  S    0.026387  -0.065149   0.118633   0.147641
   66  C 17  X   -0.017386  -0.070987   0.054764   0.059711
   67  C 17  Y    0.110871  -0.029672   0.136967   0.254425
   68  C 17  Z    0.020654  -0.021997   0.048521   0.032694
   69  C 18  S    0.106321   0.005500   0.069823  -0.029273
   70  C 18  X    0.088306  -0.034571   0.112190  -0.013130
   71  C 18  Y   -0.055920  -0.007698  -0.048729  -0.060723
   72  C 18  Z    0.139852   0.125296  -0.036362   0.023086
   73  C 19  S   -0.011106  -0.014909  -0.004660  -0.078736
   74  C 19  X   -0.052014  -0.011845  -0.004698  -0.034164
   75  C 19  Y   -0.067110  -0.040071   0.024928   0.150049
   76  C 19  Z    0.046010   0.033530  -0.085623   0.035476
   77  C 20  S   -0.084432  -0.009571   0.059521  -0.022380
   78  C 20  X    0.026519  -0.015580  -0.027371   0.081795
   79  C 20  Y    0.160393   0.060801  -0.081543   0.039524
   80  C 20  Z   -0.160239  -0.089045   0.030587   0.016300
   81  C 21  S   -0.039640   0.149849  -0.204894   0.055734
   82  C 21  X   -0.020939   0.194323  -0.192850   0.037823
   83  C 21  Y    0.037035  -0.066137   0.065950  -0.075947
   84  C 21  Z   -0.028836  -0.020972  -0.008185  -0.026907
   85  C 22  S   -0.039573  -0.149516   0.207976   0.043016
   86  C 22  X   -0.020908  -0.194035   0.194834   0.026047
   87  C 22  Y   -0.037023  -0.065576   0.070519   0.071850
   88  C 22  Z    0.028751  -0.020804  -0.006573   0.027736
   89  C 23  S    0.054022  -0.155673   0.166131  -0.139770
   90  C 23  X    0.004678  -0.150802   0.145579  -0.142389
   91  C 23  Y    0.028641   0.086114  -0.091433   0.178151
   92  C 23  Z   -0.012335   0.104414  -0.072038   0.127979
   93  C 24  S   -0.127884   0.109229  -0.062160   0.081406
   94  C 24  X   -0.114865   0.124272  -0.049926   0.055283
   95  C 24  Y   -0.008686  -0.065352   0.084164  -0.074217
   96  C 24  Z    0.216457  -0.171833   0.038272  -0.027479
   97  C 25  S   -0.084254   0.009482  -0.060853  -0.018797
   98  C 25  X    0.026731   0.015980   0.032390   0.080059
   99  C 25  Y   -0.159962   0.060739  -0.084110  -0.034660
  100  C 25  Z    0.159827  -0.089401   0.029656  -0.017498
  101  C 26  S   -0.011358   0.014580  -0.000118  -0.079196
  102  C 26  X   -0.052211   0.011872   0.002583  -0.034754
  103  C 26  Y    0.066173  -0.040714   0.015808  -0.151219
  104  C 26  Z   -0.045639   0.033256  -0.087671  -0.029960
  105  C 27  S    0.106271  -0.005870  -0.071508  -0.024192
  106  C 27  X    0.088164   0.034337  -0.112838  -0.005721
  107  C 27  Y    0.055967  -0.007583  -0.044917   0.064032
  108  C 27  Z   -0.139754   0.125489  -0.037679  -0.021796
  109  C 28  S    0.026342   0.065594   0.118932   0.147416
  110  C 28  X    0.017281  -0.071045  -0.054988  -0.059197
  111  C 28  Y    0.110675   0.030384   0.136878   0.254179
  112  C 28  Z   -0.020544  -0.022017  -0.048560  -0.032589
  113  C 29  S    0.053920  -0.155031  -0.175069  -0.129081
  114  C 29  X   -0.004663   0.150181   0.154639   0.132939
  115  C 29  Y   -0.028677  -0.085728  -0.102650  -0.172042
  116  C 29  Z   -0.012331   0.104038   0.080406   0.123130
  117  C 30  S    0.076149  -0.036699   0.021898  -0.022489
  118  C 30  X    0.063713  -0.049548   0.008929  -0.032504
  119  C 30  Y   -0.103389   0.050718   0.006608  -0.001250
  120  C 30  Z   -0.143653   0.104264  -0.072104   0.016221
  121  C 31  S    0.076062  -0.036539  -0.023590  -0.020867
  122  C 31  X   -0.063879   0.049615   0.011336   0.031923
  123  C 31  Y    0.103436  -0.050835   0.006323   0.000895
  124  C 31  Z   -0.143953   0.104258   0.073552   0.011247
  125  C 32  S   -0.127828   0.108962   0.067902   0.077298
  126  C 32  X    0.114894  -0.124017  -0.054045  -0.051909
  127  C 32  Y    0.008694   0.065039   0.088671   0.068734
  128  C 32  Z    0.216688  -0.171709  -0.041246  -0.024728

     ----------------------------------------------------------------
     PROPERTY VALUES FOR THE RHF   SELF-CONSISTENT FIELD WAVEFUNCTION
     ----------------------------------------------------------------

                    -------------
                    MOPAC CHARGES
                    -------------
         ATOM NO.   TYPE          CHARGE        ATOM  ELECTRON DENSITY
           1         C              0.0271          3.9729
           2         C              0.0270          3.9730
           3         C             -0.0103          4.0103
           4         C              0.0104          3.9896
           5         C             -0.0261          4.0261
           6         C             -0.0120          4.0120
           7         C              0.0201          3.9799
           8         C             -0.0090          4.0090
           9         C             -0.0000          4.0000
          10         C              0.0000          4.0000
          11         C              0.0201          3.9799
          12         C              0.0102          3.9898
          13         C             -0.0103          4.0103
          14         C             -0.0121          4.0121
          15         C             -0.0090          4.0090
          16         C             -0.0262          4.0262
          17         C              0.0272          3.9728
          18         C              0.0200          3.9800
          19         C              0.0103          3.9897
          20         C             -0.0104          4.0104
          21         C             -0.0121          4.0121
          22         C             -0.0121          4.0121
          23         C             -0.0259          4.0259
          24         C             -0.0091          4.0091
          25         C             -0.0104          4.0104
          26         C              0.0102          3.9898
          27         C              0.0202          3.9798
          28         C              0.0271          3.9729
          29         C             -0.0260          4.0260
          30         C              0.0001          3.9999
          31         C              0.0000          4.0000
          32         C             -0.0091          4.0091

          ---------------------
          ELECTROSTATIC MOMENTS
          ---------------------

 POINT   1           X           Y           Z (ANGS)      CHARGE
                 0.000000    0.000000    0.000000       -0.00 (A.U.)
         DX          DY          DZ         /D/  (DEBYE)
     0.000365   -0.000980   -0.001381    0.001732
 ...... END OF PROPERTY EVALUATION ......
 CPU     0: STEP CPU TIME=     0.06 TOTAL CPU TIME=          1.0 (      0.0 MIN)
 TOTAL WALL CLOCK TIME=          1.3 SECONDS, CPU UTILIZATION IS    78.13%
  $VIB   
          IVIB=   0 IATOM=   0 ICOORD=   0 E=     -138.1503482644
  2.830136685E-05-4.157506623E-05-8.418016943E-05 4.372264890E-06-2.417371137E-04
  6.449932305E-05 2.382171032E-05-9.654811061E-05 2.500351939E-04-7.422297970E-05
 -2.702144266E-04-5.143035288E-05-6.222989500E-05-1.538375508E-04 1.024488692E-04
 -2.130080195E-04 1.025509063E-04-1.062735512E-04-1.927305303E-06 9.009699575E-05
 -1.447055196E-04 2.493045776E-04 2.687311250E-05 1.140851771E-04-1.752386974E-04
  1.979934433E-04 3.352758914E-04-4.567686775E-05-1.573358931E-04-6.772372666E-05
 -4.067234940E-05 9.576472565E-05 1.339246416E-04 8.431042314E-06-9.471206982E-05
 -3.316474971E-05 5.383917118E-05 2.714228527E-04 2.016547357E-04-1.745993898E-04
 -3.093476824E-05 3.350880700E-05-8.688735127E-05-1.284611462E-04 2.660192201E-04
  2.111390556E-04 1.956555437E-04 6.278364911E-06-6.861581736E-05-4.625273223E-06
 -1.685377289E-04-5.409449267E-05 2.178503877E-05 2.499745697E-04-3.111797297E-05
 -8.645456233E-05-4.722278750E-05 1.083474653E-05-1.569577230E-04-8.432655579E-05
  2.565500186E-04 1.967272823E-06-5.015637366E-05 2.737874475E-04 3.614072156E-05
  6.302991558E-05 1.609564552E-04-1.142017177E-04-4.214558449E-05-2.074000087E-04
  1.405564214E-04-2.211212396E-04-1.430279132E-04 1.189589498E-05 1.358065489E-04
  2.649931642E-04 1.683092906E-04-1.236901347E-05-1.101848672E-04 2.278120753E-05
 -2.073523928E-04-1.598445998E-04 1.457855698E-04 8.895717386E-05-8.759164547E-05
  1.101703844E-04-9.752613479E-05 6.552677602E-05 3.852921894E-05-3.356971408E-04
  1.265442018E-04 1.272992886E-05-1.731675455E-04-2.061826050E-06-1.134131081E-04
 -1.183978652E-04
  3.653237995E-04-9.801408328E-04-1.380969431E-03
 ......END OF GEOMETRY SEARCH......
 CPU     0: STEP CPU TIME=     0.02 TOTAL CPU TIME=          1.0 (      0.0 MIN)
 TOTAL WALL CLOCK TIME=          1.3 SECONDS, CPU UTILIZATION IS    78.31%
                580000  WORDS OF DYNAMIC MEMORY USED
 EXECUTION OF GAMESS TERMINATED NORMALLY 21:03:41 22-MAY-2023    
 DDI: 263640 bytes (0.3 MB / 0 MWords) used by master data server.

 ----------------------------------------
 CPU timing information for all processes
 ========================================
 0: 0.796875 + 0.468750 = 1.265625
 1: 0.765625 + 0.125000 = 0.890625
 2: 0.234375 + 0.218750 = 0.453125
 3: 0.203125 + 0.125000 = 0.328125
 ----------------------------------------
           Disk usage (in bytes)       
 ========================================
 ----------------------------------------
            Local date and time          
 ========================================
22.05.2023 - 21:03:41,81                          
