          *******************************************************
          *                                                     *
          *          GAMESS VERSION = 30 SEP 2022 (R2)          *
          *                                                     *
          *              doi.org/10.1063/5.0005188              *
          *                                                     *
          *************** 64 BIT WINDOWS VERSION ****************

  GAMESS HAS BEEN MADE POSSIBLE WITH IMPORTANT CONTRIBUTIONS FROM
  THE FOLLOWING INDIVIDUALS (IN ALPHABETICAL ORDER):

     IVANA ADAMOVIC, CHRISTINE AIKENS, TOMOKO AKAMA,
     MELISA ALKAN, YURI ALEXEEV, YURIKO AOKI, POOJA ARORA,
     TOSHIO ASADA, ANDREY ASADCHEV, KIM K. BALDRIDGE,
     PRADIPTA BANDYOPADHYAY, TAYLOR A. BARNES, MARIA BARYSZ,
     ROB BELL, JONATHAN BENTZ, COLLEEN BERTONI,
     JERRY A. BOATZ, BRETT BODE, KURT BRORSEN, KURT R. BRORSEN,
     LAIMUTIS BYTAUTAS, CALEB CARLIN, LAURA CARRINGTON,
     GALINA CHABAN, BENOIT CHAMPAGNE, WEI CHEN, MAHITO CHIBA,
     DAN CHIPMAN, CHEOL HO CHOI, TANNER CULPITT,
     DIPAYAN DATTA, PAUL DAY, ALBERT DEFUSCO,
     NUWAN DESILVA, J. EMILIANO DEUSTUA,
     TIM DUDLEY, MICHEL DUPUIS, STEVEN T. ELBERT,
     DMITRI FEDOROV, KATHERINE FERRERAS, MICHAEL FILATOV,
     ALEX FINDLATER,GRAHAM FLETCHER, MARK FREITAG,
     CHRISTIAN FRIEDL, DAVID GARMER, 
     IGOR S. GERASIMOV, KURT GLAESEMANN,
     MARK S. GORDON, JEFFREY GOUR, FENG LONG GU,
     EMILIE B. GUIDEZ, ANASTASIA GUNINA, SHARON HAMMES-SCHIFFER,
     MASATAKE HARUTA, KIMIHIKO HIRAO, YASUHIRO IKABATA,
     TZVETELIN IORDANOV, STEPHAN IRLE, KAZUYA ISHIMURA,
     JOE IVANIC, FRANK JENSEN, JAN H. JENSEN, VISVALDAS KAIRYS,
     MUNEAKI KAMIYA, MICHIO KATOUDA, NAOAKI KAWAKAMI, DAN KEMP,
     BERNARD KIRTMAN, KAZUO KITAURA, MARIUSZ KLOBUKOWSKI,
     MASATO KOBAYASHI, KONSTANTIN KOMAROV, PRAKASHAN KORAMBATH,
     JACEK KORCHOWIEC, SHIRO KOSEKI, KAROL KOWALSKI,
     JIMMY KROMANN, STANISLAW KUCHARSKI, HENRY KURTZ,
     SAROM SOK LEANG, SEUNGHOON LEE, HUI LI, SHUHUA LI, WEI LI,
     JESSE LUTZ, ALEKSANDR O. LYKHIN, MARCIN MAKOWSKI,
     JOANI MATO, NIKITA MATSUNAGA, BENEDETTA MENNUCCI,
     GRANT MERRILL, NORIYUKI MINEZAWA, VLADIMIR MIRONOV,
     EISAKU MIYOSHI, JOHN A. MONTGOMERY JR., HIROTOSHI MORI,
     JONATHAN MULLIN, MONIKA MUSIAL, SHIGERU NAGASE,
     TAKESHI NAGATA, HIROMI NAKAI, TAKAHITO NAKAJIMA,
     YUYA NAKAJIMA, HARUYUKI NAKANO, HIROYA NAKATA, SEAN NEDD,
     HEATHER NETZLOFF, KIET A. NGUYEN, YOSHIO NISHIMOTO,
     BOSILJKA NJEGIC, RYAN OLSON, MIKE PAK, ROBERTO PEVERATI,
     BUU PHAM, PIOTR PIECUCH, ANNA POMOGAEVA, DAVID POOLE,
     SPENCER PRUITT, OLIVIER QUINET, LUKE ROSKOP,
     KLAUS RUEDENBERG, ANDREW SAND, TOSAPORN SATTASATHUCHANA,
     NOZOMI SAWADA, MICHAEL W. SCHMIDT, PATRICK E. SCHNEIDER,
     JUNJI SEINO, PRACHI SHARMA, JUN SHEN, JIM SHOEMAKER,
     YINAN SHU, DEJUN SI, JONATHAN SKONE, LYUDMILA SLIPCHENKO,
     TONY SMITH, JIE SONG, MARK SPACKMAN, CASPER STEINMANN,
     WALT STEVENS, PEIFENG SU, SHUJUN SU, CHET SWALINA,
     CHINAMI TAKASHIMA, TETSUYA TAKETSUGU, ZHEN TAO,
     NANDUN THELLAMUREGE, SEIKEN TOKURA, JACOPO TOMASI,
     TSUGUKI TOUMA, TAKAO TSUNEDA, HIROAKI UMEDA,
     JORGE LUIS GALVEZ VALLEJO, YALI WANG, SIMON WEBB,
     AARON WEST, THERESA L. WINDUS, MARTA WLOCH,
     PENG XU, KIYOSHI YAGI, SUSUMU YANAGISAWA, YANG YANG,
     SOOHAENG YOO, TAKESHI YOSHIKAWA, FEDERICO ZAHARIEV,
     TOBY ZENG

  WHO ARE SUPPORTED BY THEIR INSTITUTION/UNIVERSITY/COMPANY/GROUP
  (IN ALPHABETICAL ORDER):

     EP ANALYTICS,
     FACULTES UNIVERSITAIRES NOTRE-DAME DE LA PAIX,
     INSTITUTE FOR MOLECULAR SCIENCE, IOWA STATE UNIVERSITY,
     JACKSON STATE UNIVERSITY, JOHANNES KEPLER UNIVERSITY LINZ,
     KYUNGPOOK NATIONAL UNIVERSITY
     KYUSHU UNIVERSITY, MICHIGAN STATE UNIVERSITY,
     MIE UNIVERSITY, THE MOLECULAR SCIENCES SOFTWARE INSTITUTE,
     MOSCOW STATE UNIVERSITY,
     N. COPERNICUS UNIVERSITY, NAGOYA UNIVERSITY,
     NANJING UNIVERSITY, NAT. INST. OF ADVANCED INDUSTRIAL
     SCIENCE AND TECHNOLOGY, NATIONAL INST. OF STANDARDS AND
     TECHNOLOGY, NESMEYANOV INSTITUTE OF ORGANOELEMENT COMPOUNDS
     OF RUSSIAN ACADEMY OF SCIENCES, OSAKA PREFECTURE UNIVERSITY,
     PENNSYLVANIA STATE UNIVERSITY, TOKYO INSTITUTE OF TECHNOLOGY,
     UNIVERSITY OF AARHUS, UNIVERSITY OF ALBERTA,
     UNIVERSITY OF CALIFORNIA AT SANTA BARBARA,
     UNIVERSITY OF COPENHAGEN, UNIVERSITY OF IOWA,
     UNIVERSITY OF MEMPHIS, UNIVERSITY OF MINNESOTA,
     UNIVERSITY OF NEBRASKA, UNIVERSITY OF NEW ENGLAND,
     UNIVERSITY OF NOTRE DAME, UNIVERSITY OF PISA,
     UNIVERSITY OF SILESIA, UNIVERSITY OF TOKYO,
     UNIVERSITY OF ZURICH, WASEDA UNIVERSITY,
     YALE UNIVERSITY

  GAMESS SOFTWARE MANAGEMENT TEAM FOR THIS RELEASE:
     MARK S. GORDON (TEAM LEAD),
     BRETT BODE (SENIOR ADVISOR),
     GIUSEPPE BARCA,
     COLLEEN BERTONI,
     KRISTOPHER KEIPERT (ADVISOR),
     SAROM S. LEANG (DEVELOPMENT LEAD),
     BUU PHAM,
     JACKSON HAYES (WEBSITE ADMINISTRATOR),
     PENG XU


 PARALLEL VERSION RUNNING ON        2 PROCESSORS IN        2 NODES.

 EXECUTION OF GAMESS BEGUN 21:04:00 22-MAY-2023    

            ECHO OF THE FIRST FEW INPUT CARDS -
 INPUT CARD>! (Energy/Geometry) PM3                                                         
 INPUT CARD> $CONTRL                                                                        
 INPUT CARD>COORD=UNIQUE                                                                    
 INPUT CARD>ICHARG=0                                                                        
 INPUT CARD>MAXIT=200                                                                       
 INPUT CARD>MULT=1                                                                          
 INPUT CARD>RUNTYP=OPTIMIZE                                                                 
 INPUT CARD>SCFTYP=RHF                                                                      
 INPUT CARD>UNITS=ANGS                                                                      
 INPUT CARD>! DFTTYP=PBE                                                                    
 INPUT CARD> $END                                                                           
 INPUT CARD> $DFT                                                                           
 INPUT CARD>METHOD=GRID                                                                     
 INPUT CARD> $END                                                                           
 INPUT CARD> $BASIS                                                                         
 INPUT CARD>! EXTFIL=.T.                                                                    
 INPUT CARD>! GBASIS=GEGSSBAS                                                               
 INPUT CARD>! NGAUSS=6                                                                      
 INPUT CARD>GBASIS=PM3                                                                      
 INPUT CARD>! NDFUNC=1                                                                      
 INPUT CARD>! NPFUNC=1                                                                      
 INPUT CARD> $END                                                                           
 INPUT CARD> $SCF                                                                           
 INPUT CARD>DAMP=.F.                                                                        
 INPUT CARD>DEM=.F.                                                                         
 INPUT CARD>DIIS=.F.                                                                        
 INPUT CARD>DIRSCF=.T.                                                                      
 INPUT CARD>EXTRAP=.T.                                                                      
 INPUT CARD>RSTRCT=.F.                                                                      
 INPUT CARD>SHIFT=.F.                                                                       
 INPUT CARD>SOSCF=.T.                                                                       
 INPUT CARD> $END                                                                           
 INPUT CARD> $STATPT                                                                        
 INPUT CARD>METHOD=QA                                                                       
 INPUT CARD>NSTEP=100                                                                       
 INPUT CARD>OPTTOL=0.001                                                                    
 INPUT CARD> $END                                                                           
 INPUT CARD> $GUESS                                                                         
 INPUT CARD>GUESS=HUCKEL                                                                    
 INPUT CARD> $END                                                                           
 INPUT CARD> $SYSTEM                                                                        
 INPUT CARD>MWORDS=10                                                                       
 INPUT CARD> $END                                                                           
 INPUT CARD> $DATA                                                                          
 INPUT CARD>C32 FULLERENE                                                                   
 INPUT CARD>C1                                                                              
 INPUT CARD>C	6.0	-1.83520	-0.54660	1.70120                                                 
 INPUT CARD>C	6.0	0.59900	0.85180	1.82150                                                   
 INPUT CARD>C	6.0	-0.59730	1.44760	1.40410                                                  
 INPUT CARD>C	6.0	-1.83170	0.82280	1.53000                                                  
     10000000 WORDS OF MEMORY AVAILABLE

     BASIS OPTIONS
     -------------
     GBASIS=PM3          IGAUSS=       0      POLAR=NONE    
     NDFUNC=       0     NFFUNC=       0     DIFFSP=       F
     NPFUNC=       0      DIFFS=       F     BASNAM=        


     RUN TITLE
     ---------
 C32 FULLERENE                                                                   

 THE POINT GROUP OF THE MOLECULE IS C1      
 THE ORDER OF THE PRINCIPAL AXIS IS     0

 ATOM      ATOMIC                      COORDINATES (BOHR)
           CHARGE         X                   Y                   Z
 C           6.0    -3.4680251327       -1.0329242249        3.2148018503
 C           6.0     1.1319458666        1.6096685963        3.4421358866
 C           6.0    -1.1287333325        2.7355673398        2.6533642594
 C           6.0    -3.4614110917        1.5548665427        2.8912807612
 C           6.0     3.4415689688        2.2353568709        2.3854011143
 C           6.0    -5.0393322915       -1.9630473560        1.3643821631
 C           6.0    -6.0985237076       -0.0124721915       -0.0068030136
 C           6.0    -5.0523714008        2.1797989268        0.9550675142
 C           6.0    -3.4738832832       -3.4181363666       -0.0861715050
 C           6.0    -1.1487644279       -3.8427577960        1.0525773752
 C           6.0     1.1410165514       -3.9397007392       -0.2878052679
 C           6.0    -3.4640567081       -2.2914817327       -2.4694939208
 C           6.0    -1.1376150446       -1.7068005121       -3.5162131454
 C           6.0     1.1423393596       -2.8026526124       -2.7387798740
 C           6.0    -5.0211909220       -0.2057911601       -2.3324887866
 C           6.0     3.4857885570       -3.3104219853        0.7120487522
 C           6.0     5.0926225643       -2.1665708449       -0.9832244314
 C           6.0     3.4604662287       -1.5909603091       -2.9283193906
 C           6.0     3.4393012977       -1.8143259208        2.8723835013
 C           6.0     1.1164501135       -1.0639157311        3.8257502621
 C           6.0    -1.1548115511       -2.2890250889        3.2752730819
 C           6.0     5.0147658536        0.1698863663        2.2763639248
 C           6.0     6.1535147338        0.0094486299       -0.0445975333
 C           6.0     5.0824180440        1.9906373555       -1.3447290129
 C           6.0    -1.1423393596        0.9955076503       -3.7138784837
 C           6.0     1.1196626477        2.2417819392       -3.1297641809
 C           6.0     3.4362777361        1.0179953896       -3.1250398659
 C           6.0    -3.4772847900        1.8130031126       -2.8160696669
 C           6.0     1.1614255921        3.9408345748       -1.0281999099
 C           6.0    -1.1608586743        4.0459033397        0.2864824597
 C           6.0    -3.5052527346        3.4239945172       -0.7347254640
 C           6.0     3.5048747894        3.4976938307        0.0839038339

          INTERNUCLEAR DISTANCES (ANGS.)
          ------------------------------

                1 C          2 C          3 C          4 C          5 C     

   1 C       0.0000000    2.8098620 *  2.3659033 *  1.3800645 *  4.0685457  
   2 C       2.8098620 *  0.0000000    1.4001193 *  2.4482883 *  1.3842343 *
   3 C       2.3659033 *  1.4001193 *  0.0000000    1.3892333 *  2.4370711 *
   4 C       1.3800645 *  2.4482883 *  1.3892333 *  0.0000000    3.6803551  
   5 C       4.0685457    1.3842343 *  2.4370711 *  3.6803551    0.0000000  
   6 C       1.3756765 *  3.9304027    3.3060341    2.1944575 *  5.0367769  
   7 C       2.2661878 *  4.3252338    3.3185375    2.2332160 *  5.3388909  
   8 C       2.2412479 *  3.5402052    2.2814860 *  1.3667345 *  4.5581783  
   9 C       2.1551029 *  4.0626698    3.7743678    3.0672263    4.9043666  
  10 C       2.2419479 *  3.3735032    3.5827012    3.2562041    4.0918460  
  11 C       3.4278627    3.5382947    4.0426318    4.1492085    3.7631130  
  12 C       3.0808480    4.4680106    3.9941012    3.4914595    5.0687872  
  13 C       3.7861692    4.2521786    4.0230836    3.9985103    4.4695459  
  14 C       4.0932650    4.0186964    4.2632402    4.4864768    3.9925793  
  15 C       3.0796528    4.5676083    3.6914256    3.0316175    5.2874313  
  16 C       4.0923673    3.2276013    4.1538393    4.6339634    3.0654725  
  17 C       5.0810184    3.7242485    4.6120766    5.3452764    3.0605749  
  18 C       4.9089094    3.9687847    4.4568785    5.0667543    3.4650681  
  19 C       3.6829747    2.2056121 *  3.4137650    4.0637108    2.1584392 *
  20 C       2.4475024 *  1.4293129 *  2.4164002 *  2.8343391 *  2.2678183 *
  21 C       1.3932950 *  2.3934328 *  2.6792250 *  2.3809068 *  3.4452901  
  22 C       4.5609173    2.2765872 *  3.5287605    4.5565163    1.3751489 *
  23 C       5.4039402    3.3440556    4.3554167    5.3823985    2.2584285 *
  24 C       5.3716398    3.2905058    3.9286937    5.0516528    2.1603232 *
  25 C       4.0137305    3.9867144    3.4929616    3.7162828    4.0904632  
  26 C       4.4909692    3.4937558    3.2938333    4.0200433    3.1666003  
  27 C       5.0776001    3.6962120    4.0014805    4.8517923    2.9863117 *
  28 C       3.5288942    4.1143825    3.1874541    3.0232992    4.5859924  
  29 C       4.2391410    2.6679722 *  2.3813806 *  3.4468004    2.3523330 *
  30 C       3.3339242    2.4336597 *  1.4317293 *  2.2626755 *  2.8431093 *
  31 C       3.1513506    3.4393086    2.2200817 *  2.1588540 *  4.0786620  
  32 C       4.7019522    2.3943825 *  2.8326205 *  4.1053066    1.3894699 *

                6 C          7 C          8 C          9 C         10 C     

   1 C       1.3756765 *  2.2661878 *  2.2412479 *  2.1551029 *  2.2419479 *
   2 C       3.9304027    4.3252338    3.5402052    4.0626698    3.3735032  
   3 C       3.3060341    3.3185375    2.2814860 *  3.7743678    3.5827012  
   4 C       2.1944575 *  2.2332160 *  1.3667345 *  3.0672263    3.2562041  
   5 C       5.0367769    5.3388909    4.5581783    4.9043666    4.0918460  
   6 C       0.0000000    1.3806131 *  2.2029849 *  1.3668783 *  2.2924464 *
   7 C       1.3806131 *  0.0000000    1.3825288 *  2.2756828 *  3.3590666  
   8 C       2.2029849 *  1.3825288 *  0.0000000    3.1267473    3.7982559  
   9 C       1.3668783 *  2.2756828 *  3.1267473    0.0000000    1.3883447 *
  10 C       2.2924464 *  3.3590666    3.7982559    1.3883447 *  0.0000000  
  11 C       3.5432593    4.3609160    4.6540850    2.4599621 *  1.4049751 *
  12 C       2.2002556 *  2.2574944 *  3.0966011    1.3950294 *  2.3767083 *
  13 C       3.3093372    3.3383210    3.7576549    2.3755288 *  2.6688736 *
  14 C       3.9512904    4.3533924    4.6387985    2.8361463 *  2.4079231 *
  15 C       2.1660831 *  1.3601845 *  2.1495307 *  2.2300451 *  3.3334759  
  16 C       4.5803231    5.3771352    5.3732148    3.7074821    2.4751936 *
  17 C       5.5046946    6.0529017    5.9298274    4.6058532    3.5855031  
  18 C       5.0428207    5.3549279    5.3383396    4.0819287    3.4361145  
  19 C       4.5577927    5.3576811    5.0684474    4.0687288    2.8238723 *
  20 C       3.5403669    4.3588868    3.9887773    3.4260558    2.3985012 *
  21 C       2.2973404 *  3.3632953    3.3695219    2.2421319 *  1.4350852 *
  22 C       5.4601761    6.0045020    5.4772485    5.0344936    3.9454085  
  23 C       6.0603108    6.4835412    6.0632176    5.4078927    4.4073371  
  24 C       5.9263301    6.0524543    5.5003591    5.3978438    4.6916036  
  25 C       3.7316690    3.3183336    3.2830300    3.2653542    3.5940430  
  26 C       4.6075254    4.3294578    3.9167588    4.1801250    4.0873373  
  27 C       5.3149392    5.3365027    5.0217284    4.6333785    4.1701725  
  28 C       3.0935254    2.2510402 *  2.1713628 *  3.1224676    3.8297252  
  29 C       4.7043134    4.4077241    3.5752129    4.6292563    4.4353427  
  30 C       3.8273790    3.3857819    2.3110706 *  4.1398048    4.1941436  
  31 C       3.1653414    2.3105256 *  1.3796209 *  3.6369672    4.1517042  
  32 C       5.4085641    5.4109443    4.6048223    5.1999763    4.6277123  

               11 C         12 C         13 C         14 C         15 C     

   1 C       3.4278627    3.0808480    3.7861692    4.0932650    3.0796528  
   2 C       3.5382947    4.4680106    4.2521786    4.0186964    4.5676083  
   3 C       4.0426318    3.9941012    4.0230836    4.2632402    3.6914256  
   4 C       4.1492085    3.4914595    3.9985103    4.4864768    3.0316175  
   5 C       3.7631130    5.0687872    4.4695459    3.9925793    5.2874313  
   6 C       3.5432593    2.2002556 *  3.3093372    3.9512904    2.1660831 *
   7 C       4.3609160    2.2574944 *  3.3383210    4.3533924    1.3601845 *
   8 C       4.6540850    3.0966011    3.7576549    4.6387985    2.1495307 *
   9 C       2.4599621 *  1.3950294 *  2.3755288 *  2.8361463 *  2.2300451 *
  10 C       1.4049751 *  2.3767083 *  2.6688736 *  2.4079231 *  3.3334759  
  11 C       0.0000000    2.8340933 *  2.4018249 *  1.4297735 *  3.9633791  
  12 C       2.8340933 *  0.0000000    1.3849696 *  2.4566991 *  1.3792701 *
  13 C       2.4018249 *  1.3849696 *  0.0000000    1.4004200 *  2.2905732 *
  14 C       1.4297735 *  2.4566991 *  1.4004200 *  0.0000000    3.5457982  
  15 C       3.9633791    1.3792701 *  2.2905732 *  3.5457982    0.0000000  
  16 C       1.3893957 *  4.0805297    3.4223354    2.2236656 *  5.0556964  
  17 C       2.3213208 *  4.5962741    3.5672702    2.3121662 *  5.4982101  
  18 C       2.2369082 *  3.6909978    2.4537732 *  1.3878006 *  4.5586774  
  19 C       2.3538649 *  4.6259803    4.1591410    3.2508017    5.3249539  
  20 C       2.6560313 *  4.1707111    4.0783927    3.5936135    4.6232931  
  21 C       2.4070925 *  3.2764135    3.6070938    3.4175817    3.7692782  
  22 C       3.2821620    5.3042446    4.5805998    3.7036111    5.8474226  
  23 C       3.3792875    5.3880557    4.3687804    3.3584379    6.0371407  
  24 C       3.8093648    5.0934202    3.9978352    3.3653021    5.4963886  
  25 C       3.4010899    2.2290340 *  1.4338227 *  2.4015901 *  2.2697229 *
  26 C       3.6002692    3.4293348    2.4155042 *  2.6774331 *  3.5235554  
  27 C       3.2576383    4.0645841    2.8249355 *  2.3670673 *  4.5415176  
  28 C       4.1267151    2.1797405 *  2.2670334 *  3.4559439    1.3690284 *
  29 C       4.1885787    4.1772899    3.4850080    3.6815325    3.9994186  
  30 C       4.4083453    3.8547421    3.6491994    4.1451725    3.3400300  
  31 C       4.6136113    3.1608226    3.3328690    4.2462140    2.2467460 *
  32 C       4.1343895    4.9810283    4.1532936    3.8613075    5.0825416  

               16 C         17 C         18 C         19 C         20 C     

   1 C       4.0923673    5.0810184    4.9089094    3.6829747    2.4475024 *
   2 C       3.2276013    3.7242485    3.9687847    2.2056121 *  1.4293129 *
   3 C       4.1538393    4.6120766    4.4568785    3.4137650    2.4164002 *
   4 C       4.6339634    5.3452764    5.0667543    4.0637108    2.8343391 *
   5 C       3.0654725    3.0605749    3.4650681    2.1584392 *  2.2678183 *
   6 C       4.5803231    5.5046946    5.0428207    4.5577927    3.5403669  
   7 C       5.3771352    6.0529017    5.3549279    5.3576811    4.3588868  
   8 C       5.3732148    5.9298274    5.3383396    5.0684474    3.9887773  
   9 C       3.7074821    4.6058532    4.0819287    4.0687288    3.4260558  
  10 C       2.4751936 *  3.5855031    3.4361145    2.8238723 *  2.3985012 *
  11 C       1.3893957 *  2.3213208 *  2.2369082 *  2.3538649 *  2.6560313 *
  12 C       4.0805297    4.5962741    3.6909978    4.6259803    4.1707111  
  13 C       3.4223354    3.5672702    2.4537732 *  4.1591410    4.0783927  
  14 C       2.2236656 *  2.3121662 *  1.3878006 *  3.2508017    3.5936135  
  15 C       5.0556964    5.4982101    4.5586774    5.3249539    4.6232931  
  16 C       0.0000000    1.3762945 *  2.1305198 *  1.3907912 *  2.3875040 *
  17 C       1.3762945 *  0.0000000    1.3777581 *  2.2277834 *  3.3531651  
  18 C       2.1305198 *  1.3777581 *  0.0000000    3.0718953    3.7934902  
  19 C       1.3907912 *  2.2277834 *  3.0718953    0.0000000    1.3867737 *
  20 C       2.3875040 *  3.3531651    3.7934902    1.3867737 *  0.0000000  
  21 C       2.8569956 *  4.0015119    4.1082918    2.4533249 *  1.3963209 *
  22 C       2.1752596 *  2.1226546 *  3.0216511    1.3773282 *  2.3138865 *
  23 C       2.2890092 *  1.3739844 *  2.2531812 *  2.3188524 *  3.4091389  
  24 C       3.1253188    2.2082085 *  2.2430080 *  3.1289377    3.8083505  
  25 C       4.0835697    3.9716493    2.8246736 *  4.4984873    4.3052189  
  26 C       3.7859312    3.3395075    2.3789360 *  4.0251752    4.0752430  
  27 C       3.0610467    2.2119554 *  1.3845783 *  3.5098113    4.0311165  
  28 C       4.9409825    5.0933040    4.0898232    5.1129362    4.5365287  
  29 C       4.1334079    3.8436171    3.3256926    3.8715072    3.6894844  
  30 C       4.6098586    4.7127392    4.2157139    4.1731470    3.5030896  
  31 C       5.1934961    5.4286373    4.6880107    4.9832110    4.1767949  
  32 C       3.6180159    3.1637365    3.1293066    3.1749520    3.3682566  

               21 C         22 C         23 C         24 C         25 C     

   1 C       1.3932950 *  4.5609173    5.4039402    5.3716398    4.0137305  
   2 C       2.3934328 *  2.2765872 *  3.3440556    3.2905058    3.9867144  
   3 C       2.6792250 *  3.5287605    4.3554167    3.9286937    3.4929616  
   4 C       2.3809068 *  4.5565163    5.3823985    5.0516528    3.7162828  
   5 C       3.4452901    1.3751489 *  2.2584285 *  2.1603232 *  4.0904632  
   6 C       2.2973404 *  5.4601761    6.0603108    5.9263301    3.7316690  
   7 C       3.3632953    6.0045020    6.4835412    6.0524543    3.3183336  
   8 C       3.3695219    5.4772485    6.0632176    5.5003591    3.2830300  
   9 C       2.2421319 *  5.0344936    5.4078927    5.3978438    3.2653542  
  10 C       1.4350852 *  3.9454085    4.4073371    4.6916036    3.5940430  
  11 C       2.4070925 *  3.2821620    3.3792875    3.8093648    3.4010899  
  12 C       3.2764135    5.3042446    5.3880557    5.0934202    2.2290340 *
  13 C       3.6070938    4.5805998    4.3687804    3.9978352    1.4338227 *
  14 C       3.4175817    3.7036111    3.3584379    3.3653021    2.4015901 *
  15 C       3.7692782    5.8474226    6.0371407    5.4963886    2.2697229 *
  16 C       2.8569956 *  2.1752596 *  2.2890092 *  3.1253188    4.0835697  
  17 C       4.0015119    2.1226546 *  1.3739844 *  2.2082085 *  3.9716493  
  18 C       4.1082918    3.0216511    2.2531812 *  2.2430080 *  2.8246736 *
  19 C       2.4533249 *  1.3773282 *  2.3188524 *  3.1289377    4.4984873  
  20 C       1.3963209 *  2.3138865 *  3.4091389    3.8083505    4.3052189  
  21 C       0.0000000    3.5540763    4.4184290    4.6904023    4.0865557  
  22 C       3.5540763    0.0000000    1.3706969 *  2.1450959 *  4.5667291  
  23 C       4.4184290    1.3706969 *  0.0000000    1.3761355 *  4.3529589  
  24 C       4.6904023    2.1450959 *  1.3761355 *  0.0000000    3.5636368  
  25 C       4.0865557    4.5667291    4.3529589    3.5636368    0.0000000  
  26 C       4.3226347    3.6925350    3.3401621    2.3037666 *  1.4011752 *
  27 C       4.5206263    3.0114824    2.2382176 *  1.3824918 *  2.4428837 *
  28 C       4.0758664    5.3115173    5.3884217    4.5969914    1.3926845 *
  29 C       4.1900676    3.3463265    3.4025819    2.3234221 *  2.4362365 *
  30 C       3.7066675    3.9994555    4.4243345    3.5837247    2.6621426 *
  31 C       3.8973915    5.0824877    5.4334726    4.6185597    2.3875373 *
  32 C       4.2789349    2.2551244 *  2.3187180 *  1.3800121 *  3.4409010  

               26 C         27 C         28 C         29 C         30 C     

   1 C       4.4909692    5.0776001    3.5288942    4.2391410    3.3339242  
   2 C       3.4937558    3.6962120    4.1143825    2.6679722 *  2.4336597 *
   3 C       3.2938333    4.0014805    3.1874541    2.3813806 *  1.4317293 *
   4 C       4.0200433    4.8517923    3.0232992    3.4468004    2.2626755 *
   5 C       3.1666003    2.9863117 *  4.5859924    2.3523330 *  2.8431093 *
   6 C       4.6075254    5.3149392    3.0935254    4.7043134    3.8273790  
   7 C       4.3294578    5.3365027    2.2510402 *  4.4077241    3.3857819  
   8 C       3.9167588    5.0217284    2.1713628 *  3.5752129    2.3110706 *
   9 C       4.1801250    4.6333785    3.1224676    4.6292563    4.1398048  
  10 C       4.0873373    4.1701725    3.8297252    4.4353427    4.1941436  
  11 C       3.6002692    3.2576383    4.1267151    4.1885787    4.4083453  
  12 C       3.4293348    4.0645841    2.1797405 *  4.1772899    3.8547421  
  13 C       2.4155042 *  2.8249355 *  2.2670334 *  3.4850080    3.6491994  
  14 C       2.6774331 *  2.3670673 *  3.4559439    3.6815325    4.1451725  
  15 C       3.5235554    4.5415176    1.3690284 *  3.9994186    3.3400300  
  16 C       3.7859312    3.0610467    4.9409825    4.1334079    4.6098586  
  17 C       3.3395075    2.2119554 *  5.0933040    3.8436171    4.7127392  
  18 C       2.3789360 *  1.3845783 *  4.0898232    3.3256926    4.2157139  
  19 C       4.0251752    3.5098113    5.1129362    3.8715072    4.1731470  
  20 C       4.0752430    4.0311165    4.5365287    3.6894844    3.5030896  
  21 C       4.3226347    4.5206263    4.0758664    4.1900676    3.7066675  
  22 C       3.6925350    3.0114824    5.3115173    3.3463265    3.9994555  
  23 C       3.3401621    2.2382176 *  5.3884217    3.4025819    4.4243345  
  24 C       2.3037666 *  1.3824918 *  4.5969914    2.3234221 *  3.5837247  
  25 C       1.4011752 *  2.4428837 *  1.3926845 *  2.4362365 *  2.6621426 *
  26 C       0.0000000    1.3864425 *  2.4487920 *  1.4302572 *  2.3740175 *
  27 C       1.3864425 *  0.0000000    3.6862370    2.2522494 *  3.4270253  
  28 C       2.4487920 *  3.6862370    0.0000000    2.8615613 *  2.3652212 *
  29 C       1.4302572 *  2.2522494 *  2.8615613 *  0.0000000    1.4132534 *
  30 C       2.3740175 *  3.4270253    2.3652212 *  1.4132534 *  0.0000000  
  31 C       2.8262068 *  4.0882934    1.3928594 *  2.4894478 *  1.3926332 *
  32 C       2.2196582 *  2.1463295 *  4.0989409    1.3925410 *  2.4882948 *

               31 C         32 C     

   1 C       3.1513506    4.7019522  
   2 C       3.4393086    2.3943825 *
   3 C       2.2200817 *  2.8326205 *
   4 C       2.1588540 *  4.1053066  
   5 C       4.0786620    1.3894699 *
   6 C       3.1653414    5.4085641  
   7 C       2.3105256 *  5.4109443  
   8 C       1.3796209 *  4.6048223  
   9 C       3.6369672    5.1999763  
  10 C       4.1517042    4.6277123  
  11 C       4.6136113    4.1343895  
  12 C       3.1608226    4.9810283  
  13 C       3.3328690    4.1532936  
  14 C       4.2462140    3.8613075  
  15 C       2.2467460 *  5.0825416  
  16 C       5.1934961    3.6180159  
  17 C       5.4286373    3.1637365  
  18 C       4.6880107    3.1293066  
  19 C       4.9832110    3.1749520  
  20 C       4.1767949    3.3682566  
  21 C       3.8973915    4.2789349  
  22 C       5.0824877    2.2551244 *
  23 C       5.4334726    2.3187180 *
  24 C       4.6185597    1.3800121 *
  25 C       2.3875373 *  3.4409010  
  26 C       2.8262068 *  2.2196582 *
  27 C       4.0882934    2.1463295 *
  28 C       1.3928594 *  4.0989409  
  29 C       2.4894478 *  1.3925410 *
  30 C       1.3926332 *  2.4882948 *
  31 C       0.0000000    3.7350121  
  32 C       3.7350121    0.0000000  

  * ... LESS THAN  3.000


 TOTAL NUMBER OF BASIS SET SHELLS             =   32
 NUMBER OF CARTESIAN GAUSSIAN BASIS FUNCTIONS =  128
 NUMBER OF ELECTRONS                          =  128
 CHARGE OF MOLECULE                           =    0
 SPIN MULTIPLICITY                            =    1
 NUMBER OF OCCUPIED ORBITALS (ALPHA)          =   64
 NUMBER OF OCCUPIED ORBITALS (BETA )          =   64
 TOTAL NUMBER OF ATOMS                        =   32
 THE NUCLEAR REPULSION ENERGY IS     3160.8053527746

 THE PARAMETERS USED IN THIS CALCULATION ARE DESCRIBED IN:

  C: (PM3): J. J. P. STEWART, J. COMP. CHEM. 10, 209 (1989).                    

 THERE ARE   32 HEAVY AND    0 LIGHT ATOMS,
 YIELDING A TOTAL OF     49600 MOPAC 2E- INTEGRALS.

     $CONTRL OPTIONS
     ---------------
 SCFTYP=RHF          RUNTYP=OPTIMIZE     EXETYP=RUN     
 MPLEVL=       0     CITYP =NONE         CCTYP =NONE         VBTYP =NONE    
 DFTTYP=NONE         TDDFT =NONE    
 MULT  =       1     ICHARG=       0     NZVAR =       0     COORD =UNIQUE  
 PP    =NONE         RELWFN=NONE         LOCAL =NONE         NUMGRD=       F
 ISPHER=      -1     NOSYM =       0     MAXIT =     200     UNITS =ANGS    
 PLTORB=       F     MOLPLT=       F     AIMPAC=       F     FRIEND=        
 NPRINT=       7     IREST =       0     GEOM  =INPUT   
 NORMF =       0     NORMP =       0     ITOL  =      20     ICUT  =       9
 INTTYP=BEST         GRDTYP=BEST         QMTTOL= 1.0E-06

     $SYSTEM OPTIONS
     ---------------
  REPLICATED MEMORY=    10000000 WORDS (ON EVERY NODE).
 DISTRIBUTED MEMDDI=           0 MILLION WORDS IN AGGREGATE,
 MEMDDI DISTRIBUTED OVER   2 PROCESSORS IS           0 WORDS/PROCESSOR.
 TOTAL MEMORY REQUESTED ON EACH PROCESSOR=    10000000 WORDS.
 TIMLIM=      525600.00 MINUTES, OR     365.0 DAYS.
 PARALL= T  BALTYP=  DLB     KDIAG=    0  COREFL= F
 MXSEQ2=     300 MXSEQ3=     150  mem10=         0  mem22=         0

          ----------------
          PROPERTIES INPUT
          ----------------

     MOMENTS            FIELD           POTENTIAL          DENSITY
 IEMOM =       1   IEFLD =       0   IEPOT =       0   IEDEN =       0
 WHERE =COMASS     WHERE =NUCLEI     WHERE =NUCLEI     WHERE =NUCLEI  
 OUTPUT=BOTH       OUTPUT=BOTH       OUTPUT=BOTH       OUTPUT=BOTH    
 IEMINT=       0   IEFINT=       0                     IEDINT=       0
                                                       MORB  =       0
          EXTRAPOLATION IN EFFECT
          SOSCF IN EFFECT
 ORBITAL PRINTING OPTION: NPREO=     1   128     2     1

     -------------------------------
     INTEGRAL TRANSFORMATION OPTIONS
     -------------------------------
     NWORD  =            0
     CUTTRF = 1.0E-09     MPTRAN =       0
     DIRTRF =       T     AOINTS =DUP     

          ----------------------
          INTEGRAL INPUT OPTIONS
          ----------------------
 NOPK  =       1 NORDER=       0 SCHWRZ=       T

     ------------------------------------------
     THE POINT GROUP IS C1 , NAXIS= 0, ORDER= 1
     ------------------------------------------

     DIMENSIONS OF THE SYMMETRY SUBSPACES ARE
 A   =  128

 ..... DONE SETTING UP THE RUN .....
 CPU     0: STEP CPU TIME=     0.02 TOTAL CPU TIME=          0.0 (      0.0 MIN)
 TOTAL WALL CLOCK TIME=          0.0 SECONDS, CPU UTILIZATION IS    33.24%


          -----------------------------
          STATIONARY POINT LOCATION RUN
          -----------------------------

 OBTAINING INITIAL HESSIAN, HESS=GUESS   
 CARTESIAN COORDINATE OPTIMIZATION USING BADGER'S RULE FORCE CONSTANT GUESS

          PARAMETERS CONTROLLING GEOMETRY SEARCH ARE
          METHOD =QA                  UPHESS =BFGS    
          NNEG   =         0          NFRZ   =         0
          NSTEP  =       100          IFOLOW =         1
          HESS   =GUESS               RESTAR =         F
          IHREP  =         0          HSSEND =         F
          NPRT   =         0          NPUN   =         0
          OPTTOL = 1.000E-03          RMIN   = 1.500E-03
          RMAX   = 1.000E-01          RLIM   = 7.000E-02
          DXMAX  = 3.000E-01          PURIFY =         F
          MOVIE  =         F          TRUPD  =         T
          TRMAX  = 5.000E-01          TRMIN  = 5.000E-02
          ITBMAT =         5          STPT   =         F
          STSTEP = 1.000E-02          PROJCT=          T

 BEGINNING GEOMETRY SEARCH POINT NSERCH=   0 ...

 COORDINATES OF ALL ATOMS ARE (ANGS)
   ATOM   CHARGE       X              Y              Z
 ------------------------------------------------------------
 C           6.0  -1.8352000000  -0.5466000000   1.7012000000
 C           6.0   0.5990000000   0.8518000000   1.8215000000
 C           6.0  -0.5973000000   1.4476000000   1.4041000000
 C           6.0  -1.8317000000   0.8228000000   1.5300000000
 C           6.0   1.8212000000   1.1829000000   1.2623000000
 C           6.0  -2.6667000000  -1.0388000000   0.7220000000
 C           6.0  -3.2272000000  -0.0066000000  -0.0036000000
 C           6.0  -2.6736000000   1.1535000000   0.5054000000
 C           6.0  -1.8383000000  -1.8088000000  -0.0456000000
 C           6.0  -0.6079000000  -2.0335000000   0.5570000000
 C           6.0   0.6038000000  -2.0848000000  -0.1523000000
 C           6.0  -1.8331000000  -1.2126000000  -1.3068000000
 C           6.0  -0.6020000000  -0.9032000000  -1.8607000000
 C           6.0   0.6045000000  -1.4831000000  -1.4493000000
 C           6.0  -2.6571000000  -0.1089000000  -1.2343000000
 C           6.0   1.8446000000  -1.7518000000   0.3768000000
 C           6.0   2.6949000000  -1.1465000000  -0.5203000000
 C           6.0   1.8312000000  -0.8419000000  -1.5496000000
 C           6.0   1.8200000000  -0.9601000000   1.5200000000
 C           6.0   0.5908000000  -0.5630000000   2.0245000000
 C           6.0  -0.6111000000  -1.2113000000   1.7332000000
 C           6.0   2.6537000000   0.0899000000   1.2046000000
 C           6.0   3.2563000000   0.0050000000  -0.0236000000
 C           6.0   2.6895000000   1.0534000000  -0.7116000000
 C           6.0  -0.6045000000   0.5268000000  -1.9653000000
 C           6.0   0.5925000000   1.1863000000  -1.6562000000
 C           6.0   1.8184000000   0.5387000000  -1.6537000000
 C           6.0  -1.8401000000   0.9594000000  -1.4902000000
 C           6.0   0.6146000000   2.0854000000  -0.5441000000
 C           6.0  -0.6143000000   2.1410000000   0.1516000000
 C           6.0  -1.8549000000   1.8119000000  -0.3888000000
 C           6.0   1.8547000000   1.8509000000   0.0444000000

          ********************
          1 ELECTRON INTEGRALS
          ********************

          **************************
          1 AND 2 ELECTRON INTEGRALS
          **************************

 MOPAC ONE- AND TWO-ELECTRON INTEGRALS REQUIRE     66112 WORDS.
 ...... END OF ONE- AND TWO-ELECTRON INTEGRALS......
 CPU     0: STEP CPU TIME=     0.02 TOTAL CPU TIME=          0.0 (      0.0 MIN)
 TOTAL WALL CLOCK TIME=          0.0 SECONDS, CPU UTILIZATION IS    66.49%
 ...... END OF ONE-ELECTRON INTEGRALS ......
 CPU     0: STEP CPU TIME=     0.00 TOTAL CPU TIME=          0.0 (      0.0 MIN)
 TOTAL WALL CLOCK TIME=          0.0 SECONDS, CPU UTILIZATION IS    66.49%

          -------------
          GUESS OPTIONS
          -------------
          GUESS =HUCKEL            NORB  =       0          NORDER=       0
          MIX   =       F          PRTMO =       F          PUNMO =       F
          TOLZ  = 1.0E-08          TOLE  = 1.0E-05
          SYMDEN=       F          PURIFY=       F

 INITIAL GUESS ORBITALS GENERATED BY HUCKEL   ROUTINE.

 SYMMETRIES FOR INITIAL GUESS ORBITALS FOLLOW.   BOTH SET(S).
    64 ORBITALS ARE OCCUPIED (    0 CORE ORBITALS).
     1=A        2=A        3=A        4=A        5=A        6=A        7=A   
     8=A        9=A       10=A       11=A       12=A       13=A       14=A   
    15=A       16=A       17=A       18=A       19=A       20=A       21=A   
    22=A       23=A       24=A       25=A       26=A       27=A       28=A   
    29=A       30=A       31=A       32=A       33=A       34=A       35=A   
    36=A       37=A       38=A       39=A       40=A       41=A       42=A   
    43=A       44=A       45=A       46=A       47=A       48=A       49=A   
    50=A       51=A       52=A       53=A       54=A       55=A       56=A   
    57=A       58=A       59=A       60=A       61=A       62=A       63=A   
    64=A       65=A       66=A       67=A       68=A       69=A       70=A   
    71=A       72=A       73=A       74=A   
 ...... END OF INITIAL ORBITAL SELECTION ......
 CPU     0: STEP CPU TIME=     0.00 TOTAL CPU TIME=          0.0 (      0.0 MIN)
 TOTAL WALL CLOCK TIME=          0.1 SECONDS, CPU UTILIZATION IS    50.40%

          --------------------------
               R-PM3 SCF CALCULATION
          --------------------------

     NUCLEAR ENERGY =      1254.2514999526
     MAXIT =  200     NPUNCH=    2
     EXTRAP=T  DAMP=F  SHIFT=F  RSTRCT=F  DIIS=F  DEM=F  SOSCF=T
     DENSITY MATRIX CONV=  2.00E-05
     SOSCF WILL OPTIMIZE    4096 ORBITAL ROTATIONS, SOGTOL=   0.250
     MEMORY REQUIRED FOR RHF ITERS=    182976 WORDS.

                                                                                   NONZERO     BLOCKS
 ITER EX DEM     TOTAL ENERGY        E CHANGE  DENSITY CHANGE     ORB. GRAD      INTEGRALS    SKIPPED
   1  0  0     -136.6834273517  -136.6834273517   0.171531024   0.000000000              0          0
          ---------------START SECOND ORDER SCF---------------
   2  1  0     -137.6813770054    -0.9979496537   0.063438569   0.025364720              0          0
   3  2  0     -137.7377554205    -0.0563784151   0.059333035   0.043186859              0          0
   4  3  0     -137.7688458005    -0.0310903800   0.019287236   0.013598079              0          0
   5  4  0     -137.7784402350    -0.0095944344   0.007927293   0.002276814              0          0
   6  5  0     -137.7792335706    -0.0007933356   0.098973268   0.003046608              0          0
   7  6  0     -137.7828992172    -0.0036656466   0.031577197   0.006150430              0          0
   8  7  0     -137.7860372191    -0.0031380019   0.022674588   0.006674287              0          0
   9  8  0     -137.7901300001    -0.0040927810   0.074532131   0.005264700              0          0
  10  9  0     -137.7887696141     0.0013603860   0.050278664   0.007154876              0          0
  11 10  0     -137.7941119859    -0.0053423719   0.007911853   0.001995887              0          0
  12 11  0     -137.7947270856    -0.0006150996   0.015476723   0.001859053              0          0
  13 12  0     -137.7952404888    -0.0005134032   0.010077380   0.001735358              0          0
  14 13  0     -137.7955601147    -0.0003196259   0.023309698   0.001302553              0          0
  15 14  0     -137.7959883328    -0.0004282181   0.006560381   0.000705463              0          0
  16 15  0     -137.7960849307    -0.0000965978   0.008783970   0.000666622              0          0
  17 16  0     -137.7961816855    -0.0000967548   0.005288250   0.000539337              0          0
  18 17  0     -137.7962168129    -0.0000351274   0.006547978   0.000427369              0          0
  19 18  0     -137.7962488483    -0.0000320354   0.004838246   0.000328037              0          0
  20 19  0     -137.7962685059    -0.0000196576   0.004172810   0.000263392              0          0
  21 20  0     -137.7962832957    -0.0000147897   0.002312407   0.000185610              0          0
  22 21  0     -137.7962913379    -0.0000080423   0.001431885   0.000148670              0          0
  23 22  0     -137.7962960997    -0.0000047618   0.001045784   0.000102836              0          0
  24 23  0     -137.7962990196    -0.0000029198   0.001258473   0.000102652              0          0
  25 24  0     -137.7963009815    -0.0000019619   0.001227551   0.000078232              0          0
  26 25  0     -137.7963021839    -0.0000012024   0.000832451   0.000051183              0          0
  27 26  0     -137.7963027829    -0.0000005990   0.000408228   0.000041092              0          0
  28 27  0     -137.7963030339    -0.0000002510   0.000227311   0.000024959              0          0
  29 28  0     -137.7963031616    -0.0000001277   0.000251523   0.000019060              0          0
  30 29  0     -137.7963032617    -0.0000001001   0.000293493   0.000017941              0          0
  31 30  0     -137.7963033521    -0.0000000904   0.000289918   0.000020076              0          0
  32 31  0     -137.7963034296    -0.0000000775   0.000277344   0.000019123              0          0
  33 32  0     -137.7963034942    -0.0000000646   0.000280948   0.000015618              0          0
  34 33  0     -137.7963035481    -0.0000000539   0.000248404   0.000012684              0          0
  35 34  0     -137.7963035884    -0.0000000403   0.000172316   0.000010388              0          0
  36 35  0     -137.7963036104    -0.0000000220   0.000065840   0.000005811              0          0
  37 36  0     -137.7963036182    -0.0000000078   0.000015849   0.000003111              0          0
  38 37  0     -137.7963036202    -0.0000000020   0.000010154   0.000001429              0          0

          -----------------
          DENSITY CONVERGED
          -----------------
     TIME TO FORM FOCK OPERATORS=       0.0 SECONDS (       0.0 SEC/ITER)
     FOCK TIME ON FIRST ITERATION=       0.0, LAST ITERATION=       0.0
     TIME TO SOLVE SCF EQUATIONS=       0.2 SECONDS (       0.0 SEC/ITER)

 FINAL R-PM3 ENERGY IS     -137.7963036202 AFTER  38 ITERATIONS

 HEAT OF FORMATION IS      1079.79329 KCAL/MOL
 

          ------------
          EIGENVECTORS
          ------------

                      1          2          3          4          5
                   -1.9681    -1.8227    -1.5949    -1.5851    -1.4233
                     A          A          A          A          A   
    1  C  1  S    0.172980   0.179241   0.118357  -0.200462   0.011481
    2  C  1  X    0.011994  -0.013981   0.024311  -0.039012  -0.086601
    3  C  1  Y    0.012045   0.016360  -0.056650  -0.030061   0.023513
    4  C  1  Z   -0.049689  -0.061625  -0.032909   0.021808  -0.040504
    5  C  2  S    0.161166  -0.065693  -0.063034  -0.279675  -0.191208
    6  C  2  X    0.004698  -0.050306   0.005568   0.002892   0.041638
    7  C  2  Y   -0.019440   0.012475  -0.053565   0.042330   0.012957
    8  C  2  Z   -0.034770   0.017901   0.036214   0.033435   0.027104
    9  C  3  S    0.160489   0.069716  -0.170374  -0.228218  -0.182042
   10  C  3  X   -0.004655  -0.050917   0.003265  -0.006267  -0.049370
   11  C  3  Y   -0.025685  -0.012657  -0.021173   0.051679   0.017912
   12  C  3  Z   -0.029379  -0.018149   0.062445   0.002014   0.020528
   13  C  4  S    0.177326   0.185732  -0.079278  -0.216149   0.024544
   14  C  4  X    0.010711  -0.015895  -0.014811  -0.040851  -0.089313
   15  C  4  Y   -0.020954  -0.026762  -0.058534   0.025989  -0.025799
   16  C  4  Z   -0.046564  -0.058173   0.041503   0.019800  -0.040432
   17  C  5  S    0.179273  -0.181557  -0.118794  -0.196826   0.000680
   18  C  5  X   -0.010423  -0.016735   0.019295   0.038847   0.090791
   19  C  5  Y   -0.036677   0.044131  -0.029843   0.051423  -0.026763
   20  C  5  Z   -0.035792   0.044471   0.051718  -0.013709  -0.034592
   21  C  6  S    0.179272   0.228914   0.140180  -0.064722   0.173724
   22  C  6  X    0.043424   0.042775   0.059028  -0.027399  -0.020417
   23  C  6  Y    0.033900   0.050288  -0.025278  -0.023791   0.072894
   24  C  6  Z   -0.023409  -0.034530  -0.010727  -0.046531  -0.047322
   25  C  7  S    0.175666   0.245616  -0.002071   0.002029   0.285909
   26  C  7  X    0.065253   0.086274  -0.000519   0.000882   0.077586
   27  C  7  Y    0.001473   0.002487  -0.052318  -0.009275   0.006511
   28  C  7  Z    0.000347   0.000515   0.009541  -0.052279   0.001469
   29  C  8  S    0.181169   0.233202  -0.130977  -0.084644   0.191659
   30  C  8  X    0.043228   0.043032  -0.052793  -0.035331  -0.016581
   31  C  8  Y   -0.038097  -0.056445  -0.025200   0.011052  -0.080728
   32  C  8  Z   -0.016899  -0.024880   0.024408  -0.046726  -0.034274
   33  C  9  S    0.170789   0.176180   0.225572   0.037679   0.002563
   34  C  9  X    0.012459  -0.013066   0.044684   0.006533  -0.084456
   35  C  9  Y    0.050620   0.063013   0.032448   0.009228   0.043536
   36  C  9  Z    0.005658   0.006093   0.025536  -0.064468  -0.004794
   37  C 10  S    0.155918   0.066152   0.282671  -0.032231  -0.186177
   38  C 10  X   -0.003444  -0.047836   0.005068   0.005456  -0.041767
   39  C 10  Y    0.039776   0.022252   0.051513  -0.024196  -0.031075
   40  C 10  Z   -0.008214  -0.002205  -0.014137  -0.060911   0.007205
   41  C 11  S    0.157935  -0.064721   0.273972   0.081955  -0.178524
   42  C 11  X    0.004132  -0.048473  -0.006677   0.004312   0.047768
   43  C 11  Y    0.040896  -0.022096   0.049742   0.021712  -0.029362
   44  C 11  Z    0.000613   0.002088   0.014297  -0.063554  -0.002615
   45  C 12  S    0.170800   0.176127   0.114215   0.202489   0.004093
   46  C 12  X    0.012658  -0.013030   0.022155   0.042084  -0.085126
   47  C 12  Y    0.036020   0.044392  -0.025948   0.051906   0.025619
   48  C 12  Z    0.034979   0.044076   0.047220  -0.009964   0.035568
   49  C 13  S    0.156373   0.065941   0.073292   0.284007  -0.185599
   50  C 13  X   -0.003242  -0.048236   0.007264   0.003905  -0.043055
   51  C 13  Y    0.018889   0.012653  -0.048171   0.040966  -0.013005
   52  C 13  Z    0.035888   0.018334   0.036502   0.039789  -0.028905
   53  C 14  S    0.158116  -0.064876   0.172110   0.237075  -0.179206
   54  C 14  X    0.003931  -0.048406   0.001138  -0.008684   0.048144
   55  C 14  Y    0.027090  -0.012780  -0.014721   0.053620  -0.021663
   56  C 14  Z    0.030745  -0.018103   0.061608   0.007295  -0.020480
   57  C 15  S    0.179456   0.229609  -0.014832   0.155507   0.177614
   58  C 15  X    0.041835   0.040669  -0.004952   0.064375  -0.022033
   59  C 15  Y    0.004304   0.006610  -0.056444  -0.006519   0.011300
   60  C 15  Z    0.042143   0.062273   0.005259  -0.014573   0.087588
   61  C 16  S    0.174813  -0.177074   0.226338   0.003849   0.022000
   62  C 16  X   -0.012492  -0.013371  -0.045951  -0.001633   0.086885
   63  C 16  Y    0.049616  -0.060695   0.028666  -0.015982   0.047192
   64  C 16  Z   -0.013743   0.016037  -0.017918  -0.066901  -0.006781
   65  C 17  S    0.180246  -0.226393   0.121505   0.087557   0.194140
   66  C 17  X   -0.044280   0.043285  -0.052390  -0.037786   0.013680
   67  C 17  Y    0.038729  -0.056095  -0.024045   0.010618   0.080043
   68  C 17  Z    0.018311  -0.026323   0.022715  -0.044000   0.037525
   69  C 18  S    0.174867  -0.176990   0.081842   0.216382   0.020542
   70  C 18  X   -0.011780  -0.014562  -0.017720  -0.043695   0.088041
   71  C 18  Y    0.020349  -0.025809  -0.054962   0.022517   0.024594
   72  C 18  Z    0.047162  -0.057140   0.039771   0.021984   0.040720
   73  C 19  S    0.174546  -0.174966   0.147676  -0.178049   0.007546
   74  C 19  X   -0.011851  -0.014697  -0.028255   0.036806   0.088487
   75  C 19  Y    0.030063  -0.035564  -0.023592  -0.057958   0.014935
   76  C 19  Z   -0.042734   0.052374  -0.042112  -0.006986  -0.043821
   77  C 20  S    0.156334  -0.062034   0.120292  -0.262706  -0.188086
   78  C 20  X    0.003645  -0.047686  -0.008046   0.002903   0.042106
   79  C 20  Y    0.012652  -0.008994  -0.045652  -0.042272  -0.008964
   80  C 20  Z   -0.039776   0.020203  -0.034586   0.042597   0.032045
   81  C 21  S    0.155483   0.066343   0.207886  -0.200305  -0.185783
   82  C 21  X   -0.003007  -0.047346   0.000097  -0.008479  -0.044296
   83  C 21  Y    0.021488   0.009999  -0.014689  -0.055329  -0.017452
   84  C 21  Z   -0.035237  -0.020607  -0.060305   0.008035   0.027385
   85  C 22  S    0.187569  -0.235007   0.013250  -0.150894   0.185851
   86  C 22  X   -0.042407   0.039645  -0.006894   0.062833   0.026079
   87  C 22  Y   -0.003197   0.004448  -0.058130  -0.007020  -0.010294
   88  C 22  Z   -0.043048   0.062630   0.008265  -0.018682  -0.091644
   89  C 23  S    0.176939  -0.242642  -0.004813   0.002426   0.290523
   90  C 23  X   -0.066973   0.086996   0.001540  -0.000732  -0.081098
   91  C 23  Y   -0.000068   0.000062  -0.051177  -0.009264  -0.004673
   92  C 23  Z    0.002142  -0.003212   0.008758  -0.049146   0.004585
   93  C 24  S    0.179910  -0.225856  -0.143586   0.059727   0.171484
   94  C 24  X   -0.043556   0.042256   0.058849  -0.025416   0.022887
   95  C 24  Y   -0.034714   0.050344  -0.023527  -0.023428  -0.075966
   96  C 24  Z    0.025059  -0.035965  -0.013255  -0.043178   0.047926
   97  C 25  S    0.157575   0.067895  -0.111701   0.264972  -0.185940
   98  C 25  X   -0.003845  -0.049120  -0.006500   0.001631  -0.046383
   99  C 25  Y   -0.012198  -0.008663  -0.050864  -0.044539   0.007343
  100  C 25  Z    0.037695   0.020287  -0.032759   0.037741  -0.028968
  101  C 26  S    0.158782  -0.063918  -0.208156   0.194811  -0.195703
  102  C 26  X    0.004520  -0.049467  -0.002124  -0.008296   0.041695
  103  C 26  Y   -0.020005   0.008703  -0.021480  -0.055136   0.013824
  104  C 26  Z    0.033791  -0.019175  -0.059184   0.001892  -0.027904
  105  C 27  S    0.176229  -0.178217  -0.117129   0.195376   0.007227
  106  C 27  X   -0.010591  -0.016303   0.021946  -0.038285   0.090703
  107  C 27  Y   -0.011749   0.015239  -0.059960  -0.031833  -0.025007
  108  C 27  Z    0.049355  -0.060114  -0.034350   0.017484   0.039710
  109  C 28  S    0.171832   0.179233  -0.147441   0.175079   0.013922
  110  C 28  X    0.011587  -0.013893  -0.026296   0.035159  -0.086558
  111  C 28  Y   -0.028807  -0.035148  -0.026205  -0.058521  -0.017676
  112  C 28  Z    0.041245   0.052078  -0.043231  -0.008609   0.042402
  113  C 29  S    0.152611  -0.062535  -0.280561   0.028048  -0.195298
  114  C 29  X    0.003680  -0.046534   0.004686   0.004342   0.039475
  115  C 29  Y   -0.041058   0.022342   0.055508  -0.022459   0.035806
  116  C 29  Z    0.008656  -0.002415  -0.014868  -0.054935  -0.008639
  117  C 30  S    0.152702   0.066751  -0.271077  -0.074002  -0.181489
  118  C 30  X   -0.003387  -0.047033  -0.005980   0.003827  -0.048652
  119  C 30  Y   -0.041492  -0.023363   0.053042   0.021536   0.031917
  120  C 30  Z   -0.000818   0.001937   0.014501  -0.057047   0.003952
  121  C 31  S    0.167934   0.175334  -0.229479  -0.000995   0.015084
  122  C 31  X    0.012830  -0.011674  -0.044563  -0.001731  -0.084086
  123  C 31  Y   -0.049902  -0.062240   0.034693  -0.015633  -0.045580
  124  C 31  Z    0.014758   0.017501  -0.020725  -0.061183   0.005426
  125  C 32  S    0.169662  -0.171764  -0.228640  -0.035374  -0.009015
  126  C 32  X   -0.012850  -0.012111   0.044378   0.006120   0.085641
  127  C 32  Y   -0.052416   0.063510   0.036858   0.010133  -0.040655
  128  C 32  Z   -0.004715   0.004737   0.023533  -0.058341   0.006766

                      6          7          8          9         10
                   -1.4023    -1.3891    -1.1951    -1.1911    -1.1558
                     A          A          A          A          A   
    1  C  1  S    0.145827   0.235009  -0.192470  -0.093452  -0.097405
    2  C  1  X    0.005156  -0.001711  -0.030434  -0.044790  -0.090021
    3  C  1  Y   -0.076279   0.034248  -0.083295   0.075945   0.034959
    4  C  1  Z   -0.049186  -0.043464  -0.014536   0.004690  -0.012147
    5  C  2  S    0.000643  -0.158379  -0.188940   0.203655   0.122106
    6  C  2  X    0.028328  -0.099716   0.026984  -0.009499   0.084488
    7  C  2  Y    0.015045   0.041959   0.088850   0.094985  -0.028385
    8  C  2  Z   -0.011477   0.017851  -0.030696  -0.055958  -0.013874
    9  C  3  S   -0.126271   0.103317  -0.041724   0.275813  -0.137573
   10  C  3  X    0.061451  -0.081304   0.005032   0.024102   0.082248
   11  C  3  Y   -0.006354  -0.013610   0.105757  -0.005046   0.000458
   12  C  3  Z    0.039844  -0.019843  -0.099671  -0.012432   0.033760
   13  C  4  S   -0.116065   0.251772  -0.178552   0.134919  -0.091813
   14  C  4  X   -0.012011  -0.001859  -0.023877   0.044227  -0.095559
   15  C  4  Y   -0.078146  -0.033936   0.087952   0.056340  -0.035992
   16  C  4  Z    0.056433  -0.039259  -0.034633  -0.017883  -0.009578
   17  C  5  S    0.135379  -0.241000   0.015154   0.223153   0.102570
   18  C  5  X    0.013075   0.005579   0.022942  -0.044912  -0.088599
   19  C  5  Y    0.028113   0.082144   0.065527   0.024109   0.000790
   20  C  5  Z   -0.072284  -0.018503  -0.079400  -0.021016   0.026358
   21  C  6  S    0.228309   0.106274   0.011059  -0.010666   0.108138
   22  C  6  X    0.076687   0.039722   0.015967  -0.028970  -0.087511
   23  C  6  Y   -0.033954   0.037270  -0.063995   0.009454   0.102418
   24  C  6  Z   -0.025211   0.072658  -0.060030  -0.050783  -0.065100
   25  C  7  S    0.012208  -0.009507   0.002031   0.000268   0.336028
   26  C  7  X    0.003498  -0.002976  -0.000095   0.000878   0.062525
   27  C  7  Y   -0.094275   0.013702  -0.007213  -0.037238   0.007702
   28  C  7  Z    0.013744   0.095188  -0.038989   0.011246   0.002156
   29  C  8  S   -0.202010   0.126525   0.011635   0.015502   0.121386
   30  C  8  X   -0.072229   0.046294   0.018302   0.028043  -0.088068
   31  C  8  Y   -0.039675  -0.019324   0.054690   0.004675  -0.117476
   32  C  8  Z    0.035714   0.076210  -0.061837   0.066549  -0.045172
   33  C  9  S    0.275740  -0.020545   0.201076   0.078787  -0.112637
   34  C  9  X    0.000914   0.011406   0.051993  -0.002512  -0.087827
   35  C  9  Y    0.057876  -0.015436  -0.004928   0.018301   0.021050
   36  C  9  Z    0.038150   0.083187   0.006539  -0.104405  -0.025093
   37  C 10  S    0.139075   0.056758   0.264589  -0.103866  -0.135239
   38  C 10  X   -0.100649  -0.012598   0.019993  -0.015360   0.085906
   39  C 10  Y    0.037032   0.015721  -0.001582  -0.040146  -0.031200
   40  C 10  Z    0.008142   0.020866  -0.066031  -0.118967  -0.011061
   41  C 11  S   -0.144507   0.074465   0.277004   0.062631   0.133061
   42  C 11  X   -0.095973   0.023334  -0.023095  -0.014242   0.088232
   43  C 11  Y   -0.036186   0.015544   0.012361   0.016657   0.029627
   44  C 11  Z    0.013159  -0.028282   0.045059  -0.133726  -0.017158
   45  C 12  S    0.135122  -0.243339   0.010774   0.207708  -0.104145
   46  C 12  X   -0.009540  -0.007358  -0.023900   0.051874  -0.088951
   47  C 12  Y   -0.021015  -0.081737  -0.064391  -0.026077  -0.000319
   48  C 12  Z    0.066995   0.011744   0.080184   0.019682   0.029165
   49  C 13  S    0.008198  -0.152048  -0.190463   0.213718  -0.129675
   50  C 13  X   -0.031719   0.099792  -0.025630   0.015831   0.082148
   51  C 13  Y   -0.011539  -0.040252  -0.090737  -0.090641  -0.027425
   52  C 13  Z    0.011624  -0.019767   0.026892   0.056281  -0.016484
   53  C 14  S   -0.124025   0.109188  -0.042533   0.280913   0.129056
   54  C 14  X   -0.060323   0.080881  -0.003117  -0.031985   0.084626
   55  C 14  Y    0.003126   0.016111  -0.102614   0.006975   0.004063
   56  C 14  Z   -0.040357   0.022244   0.099713   0.016621   0.034513
   57  C 15  S   -0.004371  -0.251482  -0.011145  -0.008279   0.116573
   58  C 15  X   -0.004188  -0.085130  -0.033791   0.001474  -0.087400
   59  C 15  Y   -0.089596   0.006295  -0.002965  -0.091672   0.012584
   60  C 15  Z    0.011710   0.015988   0.038962   0.005672   0.119967
   61  C 16  S   -0.273130   0.010160   0.183004  -0.109264   0.111935
   62  C 16  X    0.007812  -0.010723  -0.053175   0.003468  -0.091283
   63  C 16  Y   -0.047331  -0.026204  -0.012854  -0.034963  -0.024082
   64  C 16  Z    0.035620  -0.087138  -0.015905  -0.097253  -0.018501
   65  C 17  S   -0.194541   0.132629   0.008307   0.002793  -0.115111
   66  C 17  X    0.073166  -0.049592  -0.017564  -0.026294  -0.085807
   67  C 17  Y    0.035186   0.020061  -0.051906  -0.010298  -0.111380
   68  C 17  Z   -0.035618  -0.072098   0.058205  -0.054230  -0.048150
   69  C 18  S   -0.119140   0.252680  -0.170552   0.114260   0.098782
   70  C 18  X    0.012877  -0.001402   0.025184  -0.050924  -0.089677
   71  C 18  Y    0.072191   0.031154  -0.085166  -0.061025  -0.034060
   72  C 18  Z   -0.056012   0.042122   0.033774   0.012765  -0.006593
   73  C 19  S   -0.161438  -0.230063  -0.016689  -0.206370   0.110200
   74  C 19  X   -0.003331   0.008190   0.030039   0.043481  -0.087318
   75  C 19  Y    0.022991  -0.086049  -0.072484   0.040267   0.008397
   76  C 19  Z    0.060369  -0.002304  -0.064383   0.027474   0.024971
   77  C 20  S   -0.039366  -0.153472  -0.213376  -0.178325   0.123555
   78  C 20  X   -0.038729  -0.093690   0.027391   0.013161   0.084669
   79  C 20  Y    0.007195  -0.037632  -0.078673   0.108396   0.023072
   80  C 20  Z    0.014671   0.028351  -0.002472   0.038082  -0.023135
   81  C 21  S    0.119630   0.087814  -0.081211  -0.270050  -0.131934
   82  C 21  X   -0.070992  -0.072730   0.000045  -0.028536   0.081903
   83  C 21  Y   -0.009859   0.012538  -0.117127   0.011932   0.000786
   84  C 21  Z   -0.040343  -0.020629  -0.073661   0.030805   0.035163
   85  C 22  S   -0.011975  -0.246426  -0.008459   0.007862  -0.123209
   86  C 22  X    0.008364   0.084688   0.030931  -0.004012  -0.092730
   87  C 22  Y    0.092964  -0.007809   0.000950   0.094401   0.008385
   88  C 22  Z   -0.014116  -0.024808  -0.037598  -0.005555   0.124200
   89  C 23  S    0.013313   0.001010  -0.002610  -0.002405  -0.334786
   90  C 23  X   -0.003618  -0.000071   0.001764   0.000155   0.064828
   91  C 23  Y    0.092903  -0.013468   0.005055   0.037778   0.002311
   92  C 23  Z   -0.013322  -0.090920   0.039555   0.000478  -0.009030
   93  C 24  S    0.227935   0.103904   0.004943  -0.017355  -0.103284
   94  C 24  X   -0.076754  -0.038102  -0.012462   0.029782  -0.089500
   95  C 24  Y    0.032651  -0.037125   0.062128  -0.000307   0.102973
   96  C 24  Z    0.026994  -0.068688   0.055104   0.057216  -0.064365
   97  C 25  S   -0.033569  -0.151742  -0.220837  -0.175112  -0.131628
   98  C 25  X    0.035847   0.095825  -0.028772  -0.007824   0.081068
   99  C 25  Y   -0.011291   0.037145   0.077350  -0.115481   0.023004
  100  C 25  Z   -0.013471  -0.023949   0.005558  -0.038520  -0.020177
  101  C 26  S    0.120834   0.089627  -0.084748  -0.269824   0.127863
  102  C 26  X    0.072735   0.072029   0.000344   0.024439   0.088276
  103  C 26  Y    0.012737  -0.011969   0.119774  -0.013573   0.004227
  104  C 26  Z    0.038484   0.017933   0.075096  -0.023945   0.032770
  105  C 27  S    0.143964   0.233828  -0.190712  -0.111296   0.101899
  106  C 27  X   -0.004441   0.001928   0.031580   0.040691  -0.088961
  107  C 27  Y    0.080714  -0.035142   0.078849  -0.069661   0.034141
  108  C 27  Z    0.049960   0.038714   0.017434  -0.008538  -0.011575
  109  C 28  S   -0.156668  -0.225006  -0.017370  -0.217900  -0.102302
  110  C 28  X    0.003476  -0.006478  -0.030681  -0.041631  -0.091089
  111  C 28  Y   -0.029171   0.086028   0.073269  -0.037275   0.004256
  112  C 28  Z   -0.060622   0.005130   0.063570  -0.026378   0.027229
  113  C 29  S    0.138987   0.056491   0.252870  -0.098266   0.130686
  114  C 29  X    0.099153   0.010608  -0.019723   0.016930   0.089926
  115  C 29  Y   -0.040144  -0.016196  -0.001940   0.041682  -0.034859
  116  C 29  Z   -0.007765  -0.020157   0.061653   0.115254  -0.011450
  117  C 30  S   -0.145527   0.071241   0.268399   0.057707  -0.142384
  118  C 30  X    0.094544  -0.020636   0.019682   0.013265   0.083993
  119  C 30  Y    0.038605  -0.016235  -0.015302  -0.018765   0.032402
  120  C 30  Z   -0.012825   0.024486  -0.040194   0.127983  -0.016385
  121  C 31  S   -0.274421   0.008091   0.184557  -0.113655  -0.115110
  122  C 31  X   -0.007695   0.012183   0.049893  -0.003763  -0.091120
  123  C 31  Y    0.053179   0.025348   0.007168   0.039605  -0.023166
  124  C 31  Z   -0.039579   0.079338   0.019790   0.098127  -0.020777
  125  C 32  S    0.276459  -0.016999   0.191968   0.086212   0.119774
  126  C 32  X   -0.002333  -0.010190  -0.050851   0.003530  -0.085164
  127  C 32  Y   -0.061378   0.016034   0.002450  -0.023049   0.014737
  128  C 32  Z   -0.035502  -0.077456  -0.001682   0.106523  -0.027424

                     11         12         13         14         15
                   -1.1107    -1.1014    -1.0375    -1.0333    -0.9251
                     A          A          A          A          A   
    1  C  1  S   -0.052014   0.160926   0.182063   0.188955   0.090662
    2  C  1  X    0.058238  -0.110992   0.036938   0.011665   0.059892
    3  C  1  Y    0.018606   0.056627   0.113856  -0.113530  -0.056581
    4  C  1  Z    0.042484  -0.059728   0.034554  -0.034479   0.026815
    5  C  2  S   -0.055139  -0.214303  -0.062583   0.115387  -0.199637
    6  C  2  X    0.032300   0.098402  -0.123159   0.070782   0.009983
    7  C  2  Y   -0.043681   0.015599   0.054887   0.062779  -0.105303
    8  C  2  Z    0.020372   0.008761  -0.009552  -0.041785   0.036559
    9  C  3  S   -0.128244  -0.172927   0.075690  -0.110022  -0.199910
   10  C  3  X   -0.057414  -0.093941   0.000898   0.135382  -0.010343
   11  C  3  Y   -0.022019   0.024213  -0.065748   0.004856   0.070592
   12  C  3  Z    0.037928  -0.013805   0.058855   0.017496  -0.087015
   13  C  4  S    0.032303   0.170178   0.180845  -0.188513  -0.135829
   14  C  4  X   -0.038400  -0.123692   0.036707  -0.013424  -0.055970
   15  C  4  Y    0.025340  -0.064209  -0.107320  -0.110099  -0.055288
   16  C  4  Z   -0.036358  -0.050507   0.057985   0.056891  -0.000080
   17  C  5  S    0.105344   0.112831  -0.074162   0.263157  -0.126474
   18  C  5  X    0.075703   0.109364  -0.000634  -0.028827   0.059659
   19  C  5  Y    0.006367  -0.050660   0.128512   0.028382   0.021357
   20  C  5  Z   -0.067044  -0.038096  -0.113806  -0.024971  -0.056222
   21  C  6  S   -0.242539   0.107605  -0.089536   0.128148   0.000884
   22  C  6  X   -0.028909   0.015053  -0.038386   0.066501  -0.021523
   23  C  6  Y    0.020969   0.081323   0.084617  -0.014621   0.037803
   24  C  6  Z    0.060208   0.104282   0.067336   0.087331   0.019140
   25  C  7  S   -0.004293  -0.009052  -0.010765   0.000024   0.058383
   26  C  7  X   -0.001571  -0.002157   0.000052  -0.001503   0.003225
   27  C  7  Y    0.157984   0.028717   0.002581   0.012125   0.004123
   28  C  7  Z   -0.026230   0.160117   0.001088  -0.000884  -0.003839
   29  C  8  S    0.221669   0.143982  -0.087960  -0.123715   0.006910
   30  C  8  X    0.024358   0.017060  -0.035705  -0.065186  -0.025610
   31  C  8  Y    0.022520  -0.058169  -0.075032  -0.027442  -0.000757
   32  C  8  Z   -0.075201   0.108048   0.077013  -0.088109  -0.049913
   33  C  9  S   -0.155402  -0.060751  -0.253315  -0.059245  -0.130920
   34  C  9  X    0.121526   0.027836  -0.021634  -0.017454  -0.055752
   35  C  9  Y   -0.080925  -0.020356  -0.002899  -0.004836   0.031134
   36  C  9  Z    0.002817   0.044970  -0.045733   0.162014  -0.044851
   37  C 10  S    0.210443  -0.023574  -0.121398  -0.006824  -0.204763
   38  C 10  X    0.106635   0.001422   0.113421  -0.068800  -0.016094
   39  C 10  Y    0.014373  -0.018303  -0.004540   0.026751   0.045180
   40  C 10  Z   -0.007539  -0.040830   0.040586   0.073061   0.102799
   41  C 11  S    0.204521   0.058085   0.127196  -0.007637  -0.211093
   42  C 11  X   -0.104840  -0.016964   0.115102   0.066033   0.012730
   43  C 11  Y    0.012788   0.012553   0.013176   0.012582   0.025459
   44  C 11  Z    0.013541  -0.037326   0.037918  -0.081697  -0.106858
   45  C 12  S   -0.106394  -0.124504   0.077869  -0.254710   0.084916
   46  C 12  X    0.069814   0.103234  -0.000182  -0.033807   0.058781
   47  C 12  Y    0.001507  -0.049311   0.124540   0.028955   0.003452
   48  C 12  Z   -0.064354  -0.044132  -0.107222  -0.026185  -0.054038
   49  C 13  S    0.057217   0.201795   0.050491  -0.116756   0.235922
   50  C 13  X    0.037735   0.095940  -0.124466   0.072649   0.060306
   51  C 13  Y   -0.040530   0.020817   0.052514   0.058521  -0.111113
   52  C 13  Z    0.018867   0.010280  -0.009103  -0.040977   0.030798
   53  C 14  S    0.127382   0.153319  -0.081029   0.114735   0.235936
   54  C 14  X   -0.058143  -0.096791   0.004603   0.135137  -0.058418
   55  C 14  Y   -0.017652   0.024343  -0.067475   0.007897   0.068368
   56  C 14  Z    0.036155  -0.012233   0.060708   0.018104  -0.095572
   57  C 15  S    0.017595  -0.263282   0.155847  -0.000674   0.003546
   58  C 15  X    0.002532  -0.025622   0.084200  -0.002158  -0.027065
   59  C 15  Y    0.139684   0.010713  -0.004708   0.124035  -0.032201
   60  C 15  Z   -0.011698  -0.023575  -0.069237  -0.012267   0.028439
   61  C 16  S   -0.158715   0.043818   0.254581  -0.061888  -0.128205
   62  C 16  X   -0.122718   0.006142  -0.023835   0.018820   0.063506
   63  C 16  Y   -0.080517   0.019540  -0.009680  -0.033878   0.040851
   64  C 16  Z    0.004331   0.051343  -0.042712  -0.159595   0.034584
   65  C 17  S   -0.219179  -0.151875   0.088322   0.121126   0.009309
   66  C 17  X    0.030811   0.023810  -0.036759  -0.070922   0.022428
   67  C 17  Y    0.017551  -0.057858  -0.071490  -0.029967   0.032255
   68  C 17  Z   -0.074927   0.110576   0.076737  -0.075325  -0.016609
   69  C 18  S   -0.036303  -0.181993  -0.174275   0.187338   0.083861
   70  C 18  X   -0.039287  -0.116475   0.039566  -0.020267  -0.059965
   71  C 18  Y    0.021202  -0.059533  -0.105062  -0.107964  -0.057164
   72  C 18  Z   -0.039193  -0.054507   0.060065   0.054083  -0.015271
   73  C 19  S   -0.123764   0.117594  -0.074132  -0.250563   0.083259
   74  C 19  X   -0.086526   0.094573   0.002193   0.032669  -0.051896
   75  C 19  Y    0.001680   0.039102  -0.141009   0.036791   0.015334
   76  C 19  Z    0.069184  -0.047504  -0.085804   0.026040   0.053454
   77  C 20  S    0.085749  -0.192027  -0.058681  -0.118125   0.231985
   78  C 20  X   -0.054069   0.090894  -0.119736  -0.064910  -0.060430
   79  C 20  Y   -0.043605  -0.027847  -0.054978   0.062868  -0.107392
   80  C 20  Z   -0.012833   0.011625   0.003993   0.029445  -0.006828
   81  C 21  S    0.156483  -0.140974   0.078947   0.105322   0.239615
   82  C 21  X    0.068587  -0.080581  -0.000298  -0.134670   0.051880
   83  C 21  Y   -0.017167  -0.032424   0.073331   0.003740   0.083969
   84  C 21  Z   -0.031659  -0.012182   0.043111  -0.021212   0.077332
   85  C 22  S   -0.025054   0.266888  -0.145835   0.007590   0.010152
   86  C 22  X    0.005861  -0.025980   0.080449  -0.001443   0.028587
   87  C 22  Y    0.144805   0.004684  -0.013974   0.125543  -0.039241
   88  C 22  Z   -0.015103  -0.012719  -0.075052  -0.010937  -0.021321
   89  C 23  S    0.007201  -0.002088   0.008599  -0.005660   0.058355
   90  C 23  X   -0.001220   0.000302   0.001877   0.000238  -0.003409
   91  C 23  Y    0.158214   0.023718  -0.005073   0.006742  -0.006291
   92  C 23  Z   -0.025189   0.158939   0.009782   0.008043   0.009288
   93  C 24  S    0.246122  -0.108491   0.071966  -0.137090  -0.005740
   94  C 24  X   -0.029355   0.012396  -0.032304   0.067549   0.023850
   95  C 24  Y    0.018743   0.081051   0.085613  -0.005024   0.009660
   96  C 24  Z    0.061578   0.098742   0.060336   0.087090   0.042643
   97  C 25  S   -0.077940   0.199933   0.057753   0.119614  -0.208857
   98  C 25  X   -0.051516   0.091862  -0.125225  -0.063992  -0.008032
   99  C 25  Y   -0.043360  -0.020310  -0.049744   0.068547  -0.109172
  100  C 25  Z   -0.012814   0.012022   0.000414   0.028992  -0.014466
  101  C 26  S   -0.155195   0.153666  -0.077440  -0.101429  -0.192498
  102  C 26  X    0.066568  -0.081281  -0.002257  -0.136924   0.015465
  103  C 26  Y   -0.023323  -0.029153   0.078221   0.000089   0.087879
  104  C 26  Z   -0.032559  -0.012728   0.048330  -0.018563   0.077990
  105  C 27  S    0.052923  -0.158640  -0.184688  -0.193657  -0.134357
  106  C 27  X    0.058443  -0.114742   0.036125   0.006474   0.050821
  107  C 27  Y    0.022509   0.062066   0.108870  -0.115142  -0.050448
  108  C 27  Z    0.043169  -0.054040   0.037102  -0.039016   0.010664
  109  C 28  S    0.125271  -0.098733   0.079873   0.253715  -0.129314
  110  C 28  X   -0.082455   0.093382   0.000900   0.031240  -0.063246
  111  C 28  Y    0.007542   0.043042  -0.142234   0.036029   0.032398
  112  C 28  Z    0.067507  -0.038634  -0.084870   0.020874   0.053609
  113  C 29  S   -0.214769   0.030293   0.131041   0.002216   0.239354
  114  C 29  X    0.105178   0.000312   0.106498  -0.062248  -0.048970
  115  C 29  Y    0.018431  -0.020923  -0.008028   0.025877   0.044347
  116  C 29  Z   -0.009760  -0.044710   0.039455   0.070544   0.092781
  117  C 30  S   -0.205631  -0.058913  -0.118579   0.001708   0.231284
  118  C 30  X   -0.105763  -0.015478   0.113644   0.060582   0.051951
  119  C 30  Y    0.015425   0.014569   0.014883   0.014842   0.030612
  120  C 30  Z    0.012731  -0.045600   0.032232  -0.075499  -0.101374
  121  C 31  S    0.157299  -0.033766  -0.250153   0.066673   0.096999
  122  C 31  X   -0.121456   0.008203  -0.021257   0.014458   0.050956
  123  C 31  Y   -0.084120   0.015968  -0.000612  -0.038815   0.044364
  124  C 31  Z    0.005711   0.035094  -0.046727  -0.154011   0.029992
  125  C 32  S    0.151671   0.053785   0.248498   0.061048   0.094356
  126  C 32  X    0.122710   0.023931  -0.027715  -0.017740  -0.058024
  127  C 32  Y   -0.083040  -0.020833  -0.002257  -0.010545   0.043325
  128  C 32  Z    0.005182   0.035844  -0.035941   0.161481  -0.035836

                     16         17         18         19         20
                   -0.9220    -0.8947    -0.8889    -0.8735    -0.8472
                     A          A          A          A          A   
    1  C  1  S   -0.139286  -0.022740  -0.004551  -0.109726  -0.183995
    2  C  1  X    0.001209  -0.046344  -0.198462  -0.026343   0.082669
    3  C  1  Y    0.036152   0.027077   0.055919  -0.135027   0.027208
    4  C  1  Z    0.027825  -0.010688  -0.071538  -0.040858   0.048931
    5  C  2  S    0.117608  -0.122613   0.093555  -0.113925  -0.024694
    6  C  2  X   -0.134069  -0.025848   0.137614   0.024833   0.059169
    7  C  2  Y    0.032942  -0.073304  -0.029265   0.161096  -0.078111
    8  C  2  Z   -0.011120   0.034952  -0.014356  -0.086262   0.024030
    9  C  3  S    0.117027   0.030614  -0.169768   0.111942  -0.148863
   10  C  3  X    0.139804  -0.100362   0.081960   0.021248  -0.089179
   11  C  3  Y   -0.020365   0.022583   0.054605   0.141988  -0.021676
   12  C  3  Z    0.023408  -0.052535  -0.039870  -0.121952   0.026160
   13  C  4  S   -0.101167   0.015559  -0.007279  -0.099184   0.068046
   14  C  4  X    0.011528   0.052824  -0.208843  -0.036153  -0.085545
   15  C  4  Y   -0.014282   0.021074  -0.070719   0.128873   0.112249
   16  C  4  Z    0.029914   0.011295  -0.056231  -0.077180  -0.086612
   17  C  5  S   -0.105283  -0.008048   0.028166   0.108237   0.138329
   18  C  5  X   -0.014244   0.154203  -0.133687  -0.026085   0.031805
   19  C  5  Y    0.021273  -0.033243   0.007126   0.116992   0.061540
   20  C  5  Z    0.012615  -0.052358   0.065695  -0.091235  -0.076994
   21  C  6  S   -0.013153   0.199136   0.104066   0.055832  -0.126508
   22  C  6  X   -0.132786  -0.055144  -0.033417  -0.008594  -0.035950
   23  C  6  Y    0.109188   0.012959   0.119628  -0.002504  -0.039549
   24  C  6  Z   -0.076370  -0.103045   0.093970   0.001718  -0.126656
   25  C  7  S    0.326077   0.013630   0.003128   0.091282  -0.002736
   26  C  7  X    0.025243   0.002778  -0.000801   0.003961  -0.000308
   27  C  7  Y    0.015293  -0.228368   0.019560   0.001224   0.032110
   28  C  7  Z   -0.007225   0.018324   0.226852   0.007744   0.027020
   29  C  8  S    0.011998  -0.203747   0.098834   0.069132   0.241255
   30  C  8  X   -0.137932   0.049948  -0.035514  -0.003579   0.056060
   31  C  8  Y   -0.137529   0.020588  -0.099768  -0.000040   0.049874
   32  C  8  Z   -0.047156   0.087710   0.119114   0.015316   0.058783
   33  C  9  S   -0.116818  -0.033989  -0.032440  -0.099462   0.134949
   34  C  9  X    0.025341  -0.199280   0.060255  -0.026940  -0.007254
   35  C  9  Y   -0.029053   0.087521  -0.024906  -0.001316   0.012490
   36  C  9  Z   -0.026108  -0.031265  -0.012660   0.135350  -0.118467
   37  C 10  S    0.132465  -0.167802   0.062748   0.118077  -0.000096
   38  C 10  X    0.142097   0.125904   0.063844   0.023755  -0.045177
   39  C 10  Y   -0.010239  -0.014806  -0.033570   0.042132   0.024260
   40  C 10  Z   -0.033107   0.030721  -0.068626   0.183006   0.045822
   41  C 11  S    0.130036   0.158190   0.071039  -0.118854  -0.121171
   42  C 11  X   -0.147614   0.129486  -0.060716   0.022724   0.058205
   43  C 11  Y   -0.007863   0.024183  -0.021466  -0.010327  -0.010876
   44  C 11  Z    0.027570   0.018965   0.067570   0.191343   0.022080
   45  C 12  S   -0.142581  -0.002646   0.032348  -0.097957   0.147475
   46  C 12  X   -0.011155  -0.147306   0.135749  -0.024934  -0.020042
   47  C 12  Y   -0.029875   0.035037  -0.011235   0.105285  -0.069669
   48  C 12  Z    0.014145   0.053749  -0.068162  -0.087365   0.081463
   49  C 13  S    0.031777  -0.124077   0.095308   0.116409  -0.038199
   50  C 13  X    0.126544   0.025886  -0.136477   0.020661  -0.072471
   51  C 13  Y   -0.001510   0.064396   0.018709   0.172563   0.060948
   52  C 13  Z    0.002835  -0.029483   0.019809  -0.082309  -0.011150
   53  C 14  S    0.051014   0.041287  -0.154469  -0.126009  -0.143295
   54  C 14  X   -0.123753   0.102837  -0.077220   0.022122   0.087276
   55  C 14  Y   -0.006465  -0.019247  -0.056817   0.138203   0.004596
   56  C 14  Z    0.010216   0.054743   0.037863  -0.127383  -0.008993
   57  C 15  S    0.028816   0.003397  -0.209147   0.046603  -0.115195
   58  C 15  X   -0.132500  -0.005773   0.064580  -0.003594  -0.020741
   59  C 15  Y    0.021723  -0.155594  -0.008183  -0.008943  -0.132003
   60  C 15  Z    0.133853   0.019479  -0.076467  -0.002448   0.036241
   61  C 16  S   -0.122860   0.028557  -0.039091   0.099700   0.014578
   62  C 16  X   -0.012311  -0.195438  -0.062588  -0.023883   0.071614
   63  C 16  Y   -0.024321  -0.088015  -0.028735   0.024861  -0.010625
   64  C 16  Z    0.020294  -0.013617   0.006023   0.134792  -0.149762
   65  C 17  S    0.009607  -0.201953   0.109753  -0.044519   0.246359
   66  C 17  X    0.135661  -0.043036   0.029716  -0.002585  -0.062073
   67  C 17  Y    0.120947  -0.028638   0.096929   0.007740  -0.048339
   68  C 17  Z    0.060772  -0.087890  -0.122884   0.000210  -0.039668
   69  C 18  S   -0.140937   0.014442  -0.000101   0.099871   0.056170
   70  C 18  X    0.001814  -0.058479   0.202608  -0.021448   0.083647
   71  C 18  Y    0.025890  -0.032452   0.059765   0.120311  -0.110083
   72  C 18  Z   -0.028563  -0.011659   0.061569  -0.062596   0.091759
   73  C 19  S   -0.155314  -0.002442   0.026825   0.094271  -0.185505
   74  C 19  X    0.008949  -0.147142  -0.142623  -0.027787  -0.090278
   75  C 19  Y   -0.030866  -0.030954   0.008144  -0.126231  -0.024697
   76  C 19  Z   -0.000064   0.055479   0.075774  -0.068903   0.044066
   77  C 20  S    0.038584   0.132732   0.105976  -0.102447   0.168199
   78  C 20  X   -0.126090   0.010575   0.134742   0.013162  -0.127764
   79  C 20  Y    0.006778  -0.069965   0.018136  -0.181664  -0.036803
   80  C 20  Z    0.000249  -0.017025  -0.024008  -0.046609   0.002948
   81  C 21  S    0.050247  -0.024253  -0.156786   0.127826   0.148590
   82  C 21  X    0.121357   0.107540   0.082718   0.030909   0.144774
   83  C 21  Y   -0.003689   0.034302  -0.056388  -0.154845   0.025750
   84  C 21  Z   -0.007418   0.055146  -0.020024  -0.096511   0.030343
   85  C 22  S    0.036120  -0.000386  -0.211916  -0.067204  -0.095963
   86  C 22  X    0.142584   0.008925  -0.065770  -0.001483   0.030601
   87  C 22  Y   -0.003118   0.160453   0.011109   0.000359   0.129255
   88  C 22  Z   -0.141390  -0.022656   0.065716  -0.007815  -0.045480
   89  C 23  S    0.328751   0.016692   0.017882  -0.077535   0.007388
   90  C 23  X   -0.027270  -0.001129  -0.000617   0.003536   0.001477
   91  C 23  Y   -0.007916   0.229923  -0.012833   0.000109  -0.047556
   92  C 23  Z    0.023492  -0.013441  -0.225872  -0.008670  -0.004848
   93  C 24  S   -0.017489   0.200763   0.107164  -0.056455  -0.138197
   94  C 24  X    0.135703   0.055852   0.038333   0.002649   0.036202
   95  C 24  Y   -0.117703  -0.013477  -0.117760  -0.006091   0.051916
   96  C 24  Z    0.063138   0.105762  -0.089177   0.016144   0.119109
   97  C 25  S    0.101822   0.123565   0.097081   0.129349   0.153694
   98  C 25  X    0.141556  -0.007762  -0.137272   0.029748   0.126015
   99  C 25  Y    0.037396   0.076384  -0.013236  -0.176214   0.054432
  100  C 25  Z    0.006004   0.018444   0.022135  -0.049949   0.006726
  101  C 26  S    0.134275  -0.022742  -0.160917  -0.117154   0.164804
  102  C 26  X   -0.131556  -0.111460  -0.089131   0.004978  -0.137740
  103  C 26  Y   -0.018019  -0.031666   0.066507  -0.161599  -0.015759
  104  C 26  Z   -0.012339  -0.048338   0.029567  -0.094647  -0.023412
  105  C 27  S   -0.105225  -0.032251  -0.017053   0.084591  -0.185184
  106  C 27  X   -0.024917   0.045559   0.206522  -0.025851  -0.091307
  107  C 27  Y   -0.013491  -0.022481  -0.056442  -0.139484  -0.018124
  108  C 27  Z   -0.031727   0.013475   0.067372  -0.045261  -0.045945
  109  C 28  S   -0.111064  -0.006685   0.032935  -0.115999  -0.173044
  110  C 28  X    0.001408   0.143406   0.139107  -0.014948   0.095416
  111  C 28  Y    0.020614   0.028681   0.000938  -0.120989   0.036490
  112  C 28  Z   -0.010163  -0.052899  -0.066601  -0.069828  -0.024053
  113  C 29  S    0.070241  -0.152408   0.077283  -0.118753   0.003461
  114  C 29  X   -0.131667  -0.131177  -0.068468   0.014993   0.050000
  115  C 29  Y   -0.007737   0.020468   0.036137   0.047145  -0.034912
  116  C 29  Z   -0.004873  -0.029894   0.064021   0.177266  -0.061801
  117  C 30  S    0.049407   0.164698   0.078681   0.115920  -0.140733
  118  C 30  X    0.141629  -0.117325   0.061507   0.019683  -0.063437
  119  C 30  Y   -0.002575  -0.022311   0.024010  -0.015464   0.011774
  120  C 30  Z    0.000319  -0.028163  -0.079016   0.180079  -0.037449
  121  C 31  S   -0.163519   0.029876  -0.025301  -0.105658   0.021028
  122  C 31  X   -0.005536   0.194635   0.068509  -0.019169  -0.064582
[...]
   35  C  9  Y   -0.193453  -0.138486  -0.060068   0.137897  -0.098486
   36  C  9  Z   -0.008990  -0.032244  -0.012305   0.039291  -0.039190
   37  C 10  S    0.024063   0.024317  -0.008397   0.005517  -0.082267
   38  C 10  X   -0.005481   0.012723   0.001697  -0.063783   0.050216
   39  C 10  Y   -0.171468  -0.139697   0.182892   0.078330   0.181383
   40  C 10  Z    0.059095   0.074013  -0.035675   0.012686  -0.113420
   41  C 11  S   -0.008433  -0.008216   0.032335   0.104791  -0.045378
   42  C 11  X    0.016068   0.032396   0.010620   0.035973  -0.079713
   43  C 11  Y    0.116984   0.063253  -0.231457  -0.256111   0.021476
   44  C 11  Z    0.020786   0.041641  -0.030248  -0.060075   0.030113
   45  C 12  S    0.007201  -0.017584   0.000259   0.106935  -0.067407
   46  C 12  X   -0.067942   0.073060  -0.029893  -0.040924   0.044262
   47  C 12  Y   -0.134899   0.125598  -0.085912  -0.147396   0.012843
   48  C 12  Z   -0.133032   0.115158  -0.071441  -0.074310   0.004613
   49  C 13  S    0.001414  -0.016209   0.006225  -0.077171  -0.045192
   50  C 13  X    0.009076  -0.012890   0.016446   0.068988  -0.019698
   51  C 13  Y    0.027954   0.042887   0.066751  -0.009823   0.056795
   52  C 13  Z    0.049163   0.152614   0.093281   0.120700   0.146296
   53  C 14  S    0.002671   0.016226  -0.006182  -0.076863   0.045131
   54  C 14  X   -0.008183  -0.012820   0.016459  -0.069196  -0.019706
   55  C 14  Y    0.025137  -0.129746  -0.065534   0.116384  -0.118755
   56  C 14  Z    0.030391  -0.091538  -0.093876   0.030857  -0.102410
   57  C 15  S   -0.001728   0.009112   0.040377  -0.011993   0.109730
   58  C 15  X    0.059269  -0.052847  -0.030264   0.003548  -0.082286
   59  C 15  Y    0.048011  -0.049910   0.021432   0.028561   0.010932
   60  C 15  Z    0.093171  -0.042509   0.039888   0.023726  -0.099654
   61  C 16  S   -0.027324  -0.039457   0.001820  -0.051349   0.154306
   62  C 16  X   -0.052432  -0.096785   0.000319  -0.049959   0.103675
   63  C 16  Y    0.148989   0.233647   0.045739   0.182430  -0.171832
   64  C 16  Z   -0.073227  -0.082400   0.002904  -0.046396   0.069083
   65  C 17  S   -0.006250  -0.009164  -0.040413  -0.012283  -0.109789
   66  C 17  X   -0.072540  -0.052992  -0.030192  -0.003828  -0.082427
   67  C 17  Y    0.084006   0.023678  -0.030373   0.013263   0.097537
   68  C 17  Z    0.084444   0.061415  -0.033611   0.035121   0.023013
   69  C 18  S    0.009171   0.017591  -0.000233   0.107273   0.067405
   70  C 18  X    0.073292   0.073284  -0.029921   0.041138   0.044208
   71  C 18  Y   -0.085805  -0.066749   0.038648  -0.020665  -0.000128
   72  C 18  Z   -0.180733  -0.157243   0.104926  -0.164013  -0.013644
   73  C 19  S    0.029359   0.028163  -0.000962   0.020662  -0.131444
   74  C 19  X    0.060834   0.092516  -0.033023   0.015893  -0.075620
   75  C 19  Y   -0.106345  -0.136607   0.087047  -0.006992   0.127623
   76  C 19  Z    0.147266   0.152172  -0.129737  -0.041721  -0.122792
   77  C 20  S    0.006176   0.035398   0.028768   0.083449   0.035831
   78  C 20  X   -0.025250  -0.017827   0.026716   0.008278   0.085438
   79  C 20  Y    0.016511   0.000431  -0.076021  -0.024661   0.035066
   80  C 20  Z   -0.045228   0.183689   0.266309   0.270046   0.045808
   81  C 21  S   -0.023236  -0.021374  -0.015441  -0.028438   0.112120
   82  C 21  X   -0.013020  -0.035780   0.004614  -0.058054  -0.060417
   83  C 21  Y    0.072043   0.119913   0.117932   0.084196  -0.184167
   84  C 21  Z   -0.059045  -0.102976  -0.182780  -0.126833   0.189475
   85  C 22  S    0.028868   0.004216  -0.068231  -0.039014   0.039216
   86  C 22  X    0.199912   0.016527  -0.162644  -0.016411  -0.010352
   87  C 22  Y    0.017924   0.060973  -0.007934  -0.002937   0.000626
   88  C 22  Z    0.174019   0.015032  -0.103654  -0.057577   0.055932
   89  C 23  S   -0.038442   0.003867   0.105303  -0.023361   0.053133
   90  C 23  X   -0.220875   0.003392   0.286741  -0.017401   0.059146
   91  C 23  Y    0.012214  -0.008164   0.008235  -0.022284  -0.012059
   92  C 23  Z   -0.056459  -0.007067   0.018947   0.027791  -0.026597
   93  C 24  S   -0.042480  -0.007746  -0.061446   0.109923  -0.048920
   94  C 24  X   -0.170382   0.018681  -0.064355   0.096526  -0.044683
   95  C 24  Y   -0.146594  -0.017260  -0.003439   0.104509  -0.033329
   96  C 24  Z    0.155837  -0.045676  -0.009926  -0.073270  -0.001519
   97  C 25  S   -0.009053   0.008119  -0.032482   0.105306   0.045570
   98  C 25  X   -0.014915   0.032461   0.010598  -0.035967  -0.079661
   99  C 25  Y   -0.023110  -0.018260  -0.048907   0.028950  -0.021130
  100  C 25  Z    0.127191  -0.072627   0.228156  -0.262053  -0.030554
  101  C 26  S    0.024211  -0.024193   0.008254   0.005681   0.081966
  102  C 26  X    0.006233   0.012663   0.001668   0.064175   0.050264
  103  C 26  Y    0.116984  -0.116852   0.094594  -0.014079   0.167711
  104  C 26  Z   -0.147682   0.107215  -0.160167   0.077944  -0.133223
  105  C 27  S    0.021334  -0.009707   0.024897  -0.125254  -0.043766
  106  C 27  X    0.094878  -0.062077  -0.005627  -0.077501  -0.002806
  107  C 27  Y    0.059322  -0.015869  -0.008471  -0.009235   0.004187
  108  C 27  Z   -0.194832   0.141111   0.060687   0.143653   0.105663
  109  C 28  S   -0.027845   0.039587  -0.001640  -0.051780  -0.154494
  110  C 28  X    0.051286  -0.096857   0.000062   0.050288   0.103840
  111  C 28  Y   -0.112073   0.155741   0.012943  -0.104999  -0.122826
  112  C 28  Z    0.109889  -0.192638  -0.044661   0.157090   0.138900
  113  C 29  S   -0.022357   0.021459   0.015458  -0.028469  -0.112092
  114  C 29  X    0.014090  -0.035616   0.004614   0.058114  -0.060525
  115  C 29  Y   -0.076214   0.137919   0.211092  -0.147583  -0.240045
  116  C 29  Z    0.048109  -0.078840  -0.050023   0.037030   0.110016
  117  C 30  S    0.006528  -0.035295  -0.028470   0.083472  -0.036069
  118  C 30  X    0.025660  -0.017983   0.026719  -0.008190   0.085583
  119  C 30  Y   -0.045145  -0.172362  -0.276673   0.263088  -0.031865
  120  C 30  Z    0.001494  -0.061714  -0.017171   0.067284  -0.048631
  121  C 31  S    0.029687  -0.028336   0.000923   0.020875   0.131721
  122  C 31  X   -0.061476   0.092347  -0.033107  -0.015881  -0.075918
  123  C 31  Y    0.172241  -0.188738   0.151442  -0.037339   0.158671
  124  C 31  Z   -0.050184   0.077727  -0.038577  -0.020650  -0.079354
  125  C 32  S   -0.002163   0.048960   0.019816  -0.113169   0.106607
  126  C 32  X   -0.029033   0.106548   0.009879  -0.067332   0.075804
  127  C 32  Y   -0.109840   0.239280  -0.020624  -0.050462   0.208365
  128  C 32  Z   -0.059789   0.043024  -0.002185  -0.023014   0.016135

                     71         72         73         74
                   -0.0459    -0.0455    -0.0431    -0.0405
                     A          A          A          A   
    1  C  1  S    0.130891   0.017754   0.040220  -0.050935
    2  C  1  X   -0.100847  -0.016635  -0.075530   0.071421
    3  C  1  Y   -0.049215   0.029408  -0.077089   0.081457
    4  C  1  Z    0.122912  -0.015522   0.012024  -0.000106
    5  C  2  S    0.000500   0.016541  -0.017190  -0.031418
    6  C  2  X   -0.042072   0.017623  -0.032507  -0.008980
    7  C  2  Y    0.005262   0.019628  -0.006115  -0.058443
    8  C  2  Z    0.124403   0.029038  -0.034668  -0.058106
    9  C  3  S    0.000179   0.016541  -0.016908   0.031696
   10  C  3  X   -0.042805  -0.016175   0.032276  -0.009399
   11  C  3  Y   -0.114069   0.024408  -0.030138   0.035625
   12  C  3  Z   -0.045261   0.029687  -0.016319   0.074690
   13  C  4  S   -0.113521  -0.044117   0.074657  -0.078546
   14  C  4  X    0.074643   0.049114  -0.101593   0.093178
   15  C  4  Y   -0.006588  -0.061559   0.083143  -0.088320
   16  C  4  Z   -0.067638  -0.046474   0.009491  -0.027357
   17  C  5  S    0.111808  -0.047881   0.075833   0.077475
   18  C  5  X    0.072769  -0.051419   0.102865   0.091522
   19  C  5  Y    0.060274  -0.024974  -0.019048  -0.003328
   20  C  5  Z    0.026125  -0.074374   0.082776   0.091078
   21  C  6  S   -0.126041  -0.010989  -0.168565   0.182244
   22  C  6  X    0.147692   0.034162   0.182109  -0.178880
   23  C  6  Y    0.180517  -0.003996   0.046063  -0.069340
   24  C  6  Z   -0.119194  -0.031069  -0.037607   0.051723
   25  C  7  S   -0.037090   0.038535   0.246951  -0.231185
   26  C  7  X    0.084298   0.004151  -0.297830   0.212302
   27  C  7  Y   -0.074184  -0.045857   0.007137   0.006530
   28  C  7  Z    0.051389  -0.075843   0.008996  -0.009289
   29  C  8  S    0.082879   0.067885  -0.202223   0.192572
   30  C  8  X   -0.107588  -0.089497   0.227872  -0.168669
   31  C  8  Y    0.094742   0.144261  -0.145014   0.112279
   32  C  8  Z    0.078523   0.038863  -0.062576   0.050298
   33  C  9  S    0.140454  -0.059373   0.057878  -0.097499
   34  C  9  X   -0.128762   0.000580  -0.082040   0.096425
   35  C  9  Y   -0.239698  -0.030996  -0.063989   0.147515
   36  C  9  Z   -0.026730   0.074382   0.040717  -0.033875
   37  C 10  S   -0.014278  -0.040293  -0.008699   0.070711
   38  C 10  X    0.073820  -0.024264   0.027186  -0.032909
   39  C 10  Y   -0.007283   0.164873  -0.007438  -0.125363
   40  C 10  Z    0.018793  -0.099840   0.013760   0.016433
   41  C 11  S   -0.075229   0.012063   0.006847  -0.025792
   42  C 11  X   -0.011440  -0.074171  -0.004027   0.019242
   43  C 11  Y    0.144334  -0.074464   0.009973   0.082875
   44  C 11  Z    0.063763  -0.058397   0.005701  -0.024121
   45  C 12  S   -0.121247   0.133594   0.047294  -0.030723
   46  C 12  X    0.081275  -0.130108  -0.067693   0.050927
   47  C 12  Y    0.101877  -0.142778  -0.003741  -0.001101
   48  C 12  Z    0.031443  -0.193988  -0.069359   0.098280
   49  C 13  S   -0.041649  -0.056107  -0.014827   0.058298
   50  C 13  X   -0.061225   0.059511   0.029670   0.002055
   51  C 13  Y    0.015034   0.019370   0.000375  -0.064890
   52  C 13  Z    0.200347   0.087096   0.019490  -0.099304
   53  C 14  S    0.039915  -0.057322  -0.015681  -0.058258
   54  C 14  X   -0.062993  -0.057509  -0.029613   0.002308
   55  C 14  Y   -0.181568   0.081341   0.019357   0.071813
   56  C 14  Z   -0.079698   0.049602   0.008307   0.094281
   57  C 15  S    0.096701  -0.170271  -0.150451   0.135412
   58  C 15  X   -0.094571   0.185139   0.165563  -0.142859
   59  C 15  Y   -0.038327   0.005182   0.003004   0.002103
   60  C 15  Z   -0.092551   0.229980   0.038303  -0.031344
   61  C 16  S    0.055040   0.158992   0.014186   0.012396
   62  C 16  X    0.046616   0.136447   0.051830   0.039111
   63  C 16  Y   -0.091144  -0.140551   0.003427  -0.021290
   64  C 16  Z   -0.033251   0.036229  -0.070647  -0.072774
   65  C 17  S   -0.102235  -0.166765  -0.152326  -0.133392
   66  C 17  X   -0.100664  -0.181625  -0.167667  -0.140671
   67  C 17  Y    0.081363   0.212411   0.035415   0.030098
   68  C 17  Z    0.069716   0.079489   0.015726   0.008429
   69  C 18  S    0.125424   0.129531   0.047567   0.030308
   70  C 18  X    0.085440   0.127214   0.068397   0.050143
   71  C 18  Y    0.000122  -0.134909  -0.065597  -0.092321
   72  C 18  Z   -0.112756  -0.195682  -0.027168  -0.031905
   73  C 19  S    0.014843  -0.138824   0.087148   0.105838
   74  C 19  X    0.040907  -0.104093   0.112673   0.105843
   75  C 19  Y    0.014529   0.113434   0.011656  -0.013656
   76  C 19  Z    0.085290  -0.124849   0.077271   0.112970
   77  C 20  S   -0.033198   0.027362  -0.006815  -0.055816
   78  C 20  X   -0.008936   0.069457  -0.034112  -0.028555
   79  C 20  Y   -0.003618  -0.025259  -0.000648   0.042432
   80  C 20  Z   -0.106099  -0.022565   0.018904  -0.100480
   81  C 21  S   -0.026612   0.038428  -0.014175   0.021115
   82  C 21  X    0.057407   0.005285   0.017588   0.007552
   83  C 21  Y    0.004010  -0.123555   0.046739  -0.005293
   84  C 21  Z   -0.028650   0.083415  -0.050476   0.077052
   85  C 22  S   -0.080712   0.070849  -0.205178  -0.189355
   86  C 22  X   -0.104666   0.093141  -0.230357  -0.164997
   87  C 22  Y   -0.042663  -0.010257  -0.010617  -0.009808
   88  C 22  Z   -0.110632   0.152723  -0.159523  -0.120018
   89  C 23  S    0.038520   0.036844   0.250447   0.227433
   90  C 23  X    0.084354  -0.007345   0.300946   0.207725
   91  C 23  Y   -0.075000  -0.053769   0.006365   0.010763
   92  C 23  Z    0.050475  -0.070213   0.009657  -0.003326
   93  C 24  S    0.125353  -0.014651  -0.171406  -0.179542
   94  C 24  X    0.146260  -0.038517  -0.184909  -0.176091
   95  C 24  Y    0.171546  -0.033303  -0.052034  -0.071093
   96  C 24  Z   -0.130572  -0.010072   0.031603   0.047510
   97  C 25  S    0.075482   0.009424   0.007188   0.025847
   98  C 25  X   -0.008879   0.074404   0.004419   0.019322
   99  C 25  Y   -0.012920  -0.029939   0.002765   0.050376
  100  C 25  Z   -0.159359  -0.083956   0.010203  -0.070574
  101  C 26  S    0.013011  -0.040273  -0.009902  -0.070601
  102  C 26  X    0.074608   0.021869  -0.027826  -0.032446
  103  C 26  Y   -0.024802  -0.148228   0.014404  -0.057932
  104  C 26  Z    0.004177   0.121606  -0.000521   0.113098
  105  C 27  S   -0.142231  -0.055057   0.059577   0.096455
  106  C 27  X   -0.128460   0.003474   0.083556   0.095075
  107  C 27  Y   -0.052265   0.082025   0.061019   0.080458
  108  C 27  Z    0.234330  -0.011700  -0.048881  -0.126901
  109  C 28  S   -0.049857   0.160753   0.014214  -0.012361
  110  C 28  X    0.042169  -0.138036  -0.051434   0.039719
  111  C 28  Y    0.003480   0.080894  -0.066621   0.062621
  112  C 28  Z    0.092894  -0.123332  -0.019970   0.044714
  113  C 29  S    0.027902   0.037460  -0.014363  -0.020846
  114  C 29  X    0.057015  -0.007076  -0.017491   0.007961
  115  C 29  Y    0.032495   0.118955  -0.064052  -0.073068
  116  C 29  Z    0.002952  -0.088408   0.026705  -0.021325
  117  C 30  S    0.033748   0.026268  -0.005952   0.056011
  118  C 30  X   -0.011034  -0.069077   0.033548  -0.029277
  119  C 30  Y    0.097382  -0.015707   0.019540   0.109146
  120  C 30  Z    0.037656  -0.032495   0.005663  -0.006479
  121  C 31  S   -0.019203  -0.138149   0.085373  -0.107493
  122  C 31  X    0.044204   0.102543  -0.110910   0.107850
  123  C 31  Y   -0.080132  -0.152715   0.066867  -0.112511
  124  C 31  Z   -0.040113   0.066522   0.036602  -0.025322
  125  C 32  S   -0.129932   0.021843   0.040978   0.050126
  126  C 32  X   -0.100012   0.019706   0.076680   0.070158
  127  C 32  Y   -0.132864  -0.020270   0.037526   0.026491
  128  C 32  Z    0.006114   0.022482  -0.069789  -0.075670

     ----------------------------------------------------------------
     PROPERTY VALUES FOR THE RHF   SELF-CONSISTENT FIELD WAVEFUNCTION
     ----------------------------------------------------------------

                    -------------
                    MOPAC CHARGES
                    -------------
         ATOM NO.   TYPE          CHARGE        ATOM  ELECTRON DENSITY
           1         C              0.0233          3.9767
           2         C              0.0004          3.9996
           3         C              0.0004          3.9996
           4         C             -0.0159          4.0159
           5         C             -0.0157          4.0157
           6         C             -0.0237          4.0237
           7         C             -0.0314          4.0314
           8         C              0.0608          3.9392
           9         C              0.0051          3.9949
          10         C             -0.0004          4.0004
          11         C              0.0064          3.9936
          12         C              0.0041          3.9959
          13         C              0.0168          3.9832
          14         C              0.0165          3.9835
          15         C             -0.0181          4.0181
          16         C              0.0122          3.9878
          17         C             -0.0183          4.0183
          18         C              0.0045          3.9955
          19         C             -0.0355          4.0355
          20         C              0.0178          3.9822
          21         C             -0.0218          4.0218
          22         C              0.0605          3.9395
          23         C             -0.0314          4.0314
          24         C             -0.0235          4.0235
          25         C              0.0061          3.9939
          26         C             -0.0003          4.0003
          27         C              0.0050          3.9950
          28         C              0.0125          3.9875
          29         C             -0.0219          4.0219
          30         C              0.0179          3.9821
          31         C             -0.0356          4.0356
          32         C              0.0232          3.9768

          ---------------------
          ELECTROSTATIC MOMENTS
          ---------------------

 POINT   1           X           Y           Z (ANGS)      CHARGE
                 0.000000    0.000000    0.000000       -0.00 (A.U.)
         DX          DY          DZ         /D/  (DEBYE)
    -0.000339    0.042687    0.058149    0.072136
 ...... END OF PROPERTY EVALUATION ......
 CPU     0: STEP CPU TIME=     0.05 TOTAL CPU TIME=          1.1 (      0.0 MIN)
 TOTAL WALL CLOCK TIME=          1.2 SECONDS, CPU UTILIZATION IS    94.53%
  $VIB   
          IVIB=   0 IATOM=   0 ICOORD=   0 E=     -138.1322308911
  2.318325599E-04-7.663150229E-06 2.453104068E-04-9.657027072E-06 5.124290046E-05
 -1.007936551E-04-2.391610063E-04-6.976660393E-05 5.257440367E-04 2.010447308E-04
 -4.600684575E-05 1.630289391E-04-3.084631157E-05 2.716718012E-04 7.007139427E-05
 -1.237136559E-04-7.283983597E-05 1.278445377E-05-1.813112843E-04-1.518068266E-04
 -1.588907227E-05-1.651309179E-04 8.152751802E-05 7.297865692E-05-1.484456775E-05
 -6.081080206E-05-6.348605576E-05-6.013324591E-05-2.586469399E-05-2.179122528E-04
 -2.643605100E-05-1.666751546E-04-2.270634622E-04-8.390308993E-05-4.910866609E-05
  1.104035182E-05 6.897747617E-05 1.309842735E-04-2.385459744E-05-2.026520568E-04
 -2.588074249E-04 2.364968265E-04-1.124518287E-04-1.197961632E-04-2.256315157E-04
 -5.528945990E-05 1.088796314E-04 1.330382951E-04 8.517811104E-05-2.354882339E-04
 -1.720848533E-04 1.841336637E-04-3.934195910E-05 1.466421369E-05 4.077156210E-05
 -2.797465863E-04-1.847526683E-05-1.444849590E-04 5.463960217E-05 1.615319452E-04
 -1.099476101E-04 9.317340319E-05 3.053821952E-04 2.675001713E-04-6.568795744E-05
  9.799441280E-05 2.580130089E-04-2.012138175E-05-9.478528926E-05 1.030330674E-04
  8.726357160E-05-7.667713386E-05-1.709391794E-04 6.966069636E-05-3.643940595E-04
 -3.651999431E-05-1.510776929E-04 2.308713468E-04 1.214104426E-04 1.478200526E-04
 -2.081375755E-04 2.579585821E-04 6.920509924E-05-1.928842016E-05 1.326662216E-04
  3.226237972E-04-2.440315332E-04-1.178088887E-04-8.276741348E-05-2.481079259E-04
  9.514744689E-05 2.596864395E-04-1.246417981E-04-1.624359098E-04 1.549986056E-04
  1.643169921E-04
 -3.390433167E-04 4.268657926E-02 5.814926775E-02
 ......END OF GEOMETRY SEARCH......
 CPU     0: STEP CPU TIME=     0.03 TOTAL CPU TIME=          1.1 (      0.0 MIN)
 TOTAL WALL CLOCK TIME=          1.2 SECONDS, CPU UTILIZATION IS    95.91%
                580000  WORDS OF DYNAMIC MEMORY USED
 EXECUTION OF GAMESS TERMINATED NORMALLY 21:04:01 22-MAY-2023    
 DDI: 263640 bytes (0.3 MB / 0 MWords) used by master data server.

 ----------------------------------------
 CPU timing information for all processes
 ========================================
 0: 0.796875 + 0.406250 = 1.203125
 1: 0.703125 + 0.140625 = 0.843750
 2: 0.203125 + 0.328125 = 0.531250
 3: 0.140625 + 0.218750 = 0.359375
 ----------------------------------------
           Disk usage (in bytes)       
 ========================================
 ----------------------------------------
            Local date and time          
 ========================================
22.05.2023 - 21:04:01,97                          
