          *******************************************************
          *                                                     *
          *          GAMESS VERSION = 30 SEP 2022 (R2)          *
          *                                                     *
          *              doi.org/10.1063/5.0005188              *
          *                                                     *
          *************** 64 BIT WINDOWS VERSION ****************

  GAMESS HAS BEEN MADE POSSIBLE WITH IMPORTANT CONTRIBUTIONS FROM
  THE FOLLOWING INDIVIDUALS (IN ALPHABETICAL ORDER):

     IVANA ADAMOVIC, CHRISTINE AIKENS, TOMOKO AKAMA,
     MELISA ALKAN, YURI ALEXEEV, YURIKO AOKI, POOJA ARORA,
     TOSHIO ASADA, ANDREY ASADCHEV, KIM K. BALDRIDGE,
     PRADIPTA BANDYOPADHYAY, TAYLOR A. BARNES, MARIA BARYSZ,
     ROB BELL, JONATHAN BENTZ, COLLEEN BERTONI,
     JERRY A. BOATZ, BRETT BODE, KURT BRORSEN, KURT R. BRORSEN,
     LAIMUTIS BYTAUTAS, CALEB CARLIN, LAURA CARRINGTON,
     GALINA CHABAN, BENOIT CHAMPAGNE, WEI CHEN, MAHITO CHIBA,
     DAN CHIPMAN, CHEOL HO CHOI, TANNER CULPITT,
     DIPAYAN DATTA, PAUL DAY, ALBERT DEFUSCO,
     NUWAN DESILVA, J. EMILIANO DEUSTUA,
     TIM DUDLEY, MICHEL DUPUIS, STEVEN T. ELBERT,
     DMITRI FEDOROV, KATHERINE FERRERAS, MICHAEL FILATOV,
     ALEX FINDLATER,GRAHAM FLETCHER, MARK FREITAG,
     CHRISTIAN FRIEDL, DAVID GARMER, 
     IGOR S. GERASIMOV, KURT GLAESEMANN,
     MARK S. GORDON, JEFFREY GOUR, FENG LONG GU,
     EMILIE B. GUIDEZ, ANASTASIA GUNINA, SHARON HAMMES-SCHIFFER,
     MASATAKE HARUTA, KIMIHIKO HIRAO, YASUHIRO IKABATA,
     TZVETELIN IORDANOV, STEPHAN IRLE, KAZUYA ISHIMURA,
     JOE IVANIC, FRANK JENSEN, JAN H. JENSEN, VISVALDAS KAIRYS,
     MUNEAKI KAMIYA, MICHIO KATOUDA, NAOAKI KAWAKAMI, DAN KEMP,
     BERNARD KIRTMAN, KAZUO KITAURA, MARIUSZ KLOBUKOWSKI,
     MASATO KOBAYASHI, KONSTANTIN KOMAROV, PRAKASHAN KORAMBATH,
     JACEK KORCHOWIEC, SHIRO KOSEKI, KAROL KOWALSKI,
     JIMMY KROMANN, STANISLAW KUCHARSKI, HENRY KURTZ,
     SAROM SOK LEANG, SEUNGHOON LEE, HUI LI, SHUHUA LI, WEI LI,
     JESSE LUTZ, ALEKSANDR O. LYKHIN, MARCIN MAKOWSKI,
     JOANI MATO, NIKITA MATSUNAGA, BENEDETTA MENNUCCI,
     GRANT MERRILL, NORIYUKI MINEZAWA, VLADIMIR MIRONOV,
     EISAKU MIYOSHI, JOHN A. MONTGOMERY JR., HIROTOSHI MORI,
     JONATHAN MULLIN, MONIKA MUSIAL, SHIGERU NAGASE,
     TAKESHI NAGATA, HIROMI NAKAI, TAKAHITO NAKAJIMA,
     YUYA NAKAJIMA, HARUYUKI NAKANO, HIROYA NAKATA, SEAN NEDD,
     HEATHER NETZLOFF, KIET A. NGUYEN, YOSHIO NISHIMOTO,
     BOSILJKA NJEGIC, RYAN OLSON, MIKE PAK, ROBERTO PEVERATI,
     BUU PHAM, PIOTR PIECUCH, ANNA POMOGAEVA, DAVID POOLE,
     SPENCER PRUITT, OLIVIER QUINET, LUKE ROSKOP,
     KLAUS RUEDENBERG, ANDREW SAND, TOSAPORN SATTASATHUCHANA,
     NOZOMI SAWADA, MICHAEL W. SCHMIDT, PATRICK E. SCHNEIDER,
     JUNJI SEINO, PRACHI SHARMA, JUN SHEN, JIM SHOEMAKER,
     YINAN SHU, DEJUN SI, JONATHAN SKONE, LYUDMILA SLIPCHENKO,
     TONY SMITH, JIE SONG, MARK SPACKMAN, CASPER STEINMANN,
     WALT STEVENS, PEIFENG SU, SHUJUN SU, CHET SWALINA,
     CHINAMI TAKASHIMA, TETSUYA TAKETSUGU, ZHEN TAO,
     NANDUN THELLAMUREGE, SEIKEN TOKURA, JACOPO TOMASI,
     TSUGUKI TOUMA, TAKAO TSUNEDA, HIROAKI UMEDA,
     JORGE LUIS GALVEZ VALLEJO, YALI WANG, SIMON WEBB,
     AARON WEST, THERESA L. WINDUS, MARTA WLOCH,
     PENG XU, KIYOSHI YAGI, SUSUMU YANAGISAWA, YANG YANG,
     SOOHAENG YOO, TAKESHI YOSHIKAWA, FEDERICO ZAHARIEV,
     TOBY ZENG

  WHO ARE SUPPORTED BY THEIR INSTITUTION/UNIVERSITY/COMPANY/GROUP
  (IN ALPHABETICAL ORDER):

     EP ANALYTICS,
     FACULTES UNIVERSITAIRES NOTRE-DAME DE LA PAIX,
     INSTITUTE FOR MOLECULAR SCIENCE, IOWA STATE UNIVERSITY,
     JACKSON STATE UNIVERSITY, JOHANNES KEPLER UNIVERSITY LINZ,
     KYUNGPOOK NATIONAL UNIVERSITY
     KYUSHU UNIVERSITY, MICHIGAN STATE UNIVERSITY,
     MIE UNIVERSITY, THE MOLECULAR SCIENCES SOFTWARE INSTITUTE,
     MOSCOW STATE UNIVERSITY,
     N. COPERNICUS UNIVERSITY, NAGOYA UNIVERSITY,
     NANJING UNIVERSITY, NAT. INST. OF ADVANCED INDUSTRIAL
     SCIENCE AND TECHNOLOGY, NATIONAL INST. OF STANDARDS AND
     TECHNOLOGY, NESMEYANOV INSTITUTE OF ORGANOELEMENT COMPOUNDS
     OF RUSSIAN ACADEMY OF SCIENCES, OSAKA PREFECTURE UNIVERSITY,
     PENNSYLVANIA STATE UNIVERSITY, TOKYO INSTITUTE OF TECHNOLOGY,
     UNIVERSITY OF AARHUS, UNIVERSITY OF ALBERTA,
     UNIVERSITY OF CALIFORNIA AT SANTA BARBARA,
     UNIVERSITY OF COPENHAGEN, UNIVERSITY OF IOWA,
     UNIVERSITY OF MEMPHIS, UNIVERSITY OF MINNESOTA,
     UNIVERSITY OF NEBRASKA, UNIVERSITY OF NEW ENGLAND,
     UNIVERSITY OF NOTRE DAME, UNIVERSITY OF PISA,
     UNIVERSITY OF SILESIA, UNIVERSITY OF TOKYO,
     UNIVERSITY OF ZURICH, WASEDA UNIVERSITY,
     YALE UNIVERSITY

  GAMESS SOFTWARE MANAGEMENT TEAM FOR THIS RELEASE:
     MARK S. GORDON (TEAM LEAD),
     BRETT BODE (SENIOR ADVISOR),
     GIUSEPPE BARCA,
     COLLEEN BERTONI,
     KRISTOPHER KEIPERT (ADVISOR),
     SAROM S. LEANG (DEVELOPMENT LEAD),
     BUU PHAM,
     JACKSON HAYES (WEBSITE ADMINISTRATOR),
     PENG XU


 PARALLEL VERSION RUNNING ON        2 PROCESSORS IN        2 NODES.

 EXECUTION OF GAMESS BEGUN 21:03:19 22-MAY-2023    

            ECHO OF THE FIRST FEW INPUT CARDS -
 INPUT CARD>! (Energy/Geometry) PM3                                                         
 INPUT CARD> $CONTRL                                                                        
 INPUT CARD>COORD=UNIQUE                                                                    
 INPUT CARD>ICHARG=0                                                                        
 INPUT CARD>MAXIT=200                                                                       
 INPUT CARD>MULT=1                                                                          
 INPUT CARD>RUNTYP=OPTIMIZE                                                                 
 INPUT CARD>SCFTYP=RHF                                                                      
 INPUT CARD>UNITS=ANGS                                                                      
 INPUT CARD>! DFTTYP=PBE                                                                    
 INPUT CARD> $END                                                                           
 INPUT CARD> $DFT                                                                           
 INPUT CARD>METHOD=GRID                                                                     
 INPUT CARD> $END                                                                           
 INPUT CARD> $BASIS                                                                         
 INPUT CARD>! EXTFIL=.T.                                                                    
 INPUT CARD>! GBASIS=GEGSSBAS                                                               
 INPUT CARD>! NGAUSS=6                                                                      
 INPUT CARD>GBASIS=PM3                                                                      
 INPUT CARD>! NDFUNC=1                                                                      
 INPUT CARD>! NPFUNC=1                                                                      
 INPUT CARD> $END                                                                           
 INPUT CARD> $SCF                                                                           
 INPUT CARD>DAMP=.F.                                                                        
 INPUT CARD>DEM=.F.                                                                         
 INPUT CARD>DIIS=.F.                                                                        
 INPUT CARD>DIRSCF=.T.                                                                      
 INPUT CARD>EXTRAP=.T.                                                                      
 INPUT CARD>RSTRCT=.F.                                                                      
 INPUT CARD>SHIFT=.F.                                                                       
 INPUT CARD>SOSCF=.T.                                                                       
 INPUT CARD> $END                                                                           
 INPUT CARD> $STATPT                                                                        
 INPUT CARD>METHOD=QA                                                                       
 INPUT CARD>NSTEP=100                                                                       
 INPUT CARD>OPTTOL=0.001                                                                    
 INPUT CARD> $END                                                                           
 INPUT CARD> $GUESS                                                                         
 INPUT CARD>GUESS=HUCKEL                                                                    
 INPUT CARD> $END                                                                           
 INPUT CARD> $SYSTEM                                                                        
 INPUT CARD>MWORDS=10                                                                       
 INPUT CARD> $END                                                                           
 INPUT CARD> $DATA                                                                          
 INPUT CARD>C32 FULLERENE                                                                   
 INPUT CARD>C1                                                                              
 INPUT CARD>C	6.0	2.70450	1.16090	-0.14630                                                  
 INPUT CARD>C	6.0	1.61930	1.72490	-0.79330                                                  
 INPUT CARD>C	6.0	2.34210	1.02670	1.14620                                                   
 INPUT CARD>C	6.0	-0.68690	2.16170	-0.13790                                                 
     10000000 WORDS OF MEMORY AVAILABLE

     BASIS OPTIONS
     -------------
     GBASIS=PM3          IGAUSS=       0      POLAR=NONE    
     NDFUNC=       0     NFFUNC=       0     DIFFSP=       F
     NPFUNC=       0      DIFFS=       F     BASNAM=        


     RUN TITLE
     ---------
 C32 FULLERENE                                                                   

 THE POINT GROUP OF THE MOLECULE IS C1      
 THE ORDER OF THE PRINCIPAL AXIS IS     0

 ATOM      ATOMIC                      COORDINATES (BOHR)
           CHARGE         X                   Y                   Z
 C           6.0     5.1107639338        2.1937828991       -0.2764669120
 C           6.0     3.0600332919        3.2595883562       -1.4991196261
 C           6.0     4.4259272358        1.9401816716        2.1660039271
 C           6.0    -1.2980527810        4.0850206677       -0.2605932137
 C           6.0     1.2691399734        4.0785955993        0.2711756792
 C           6.0     2.1376580373        3.0634347987        2.5619015216
 C           6.0    -2.1282094074        3.0562538399       -2.5730509049
 C           6.0     4.1371771049       -0.5604927280        2.7247959017
 C           6.0     4.9138544859       -1.9335676306        0.5826025220
 C           6.0     3.2049752752       -3.6337541018       -0.3707642388
 C           6.0     1.7124696901       -0.9522329252        3.7473266337
 C           6.0     0.2309245157       -3.0188372654        2.9500512394
 C           6.0     1.0236645675       -4.3539286757        0.8014327914
 C           6.0    -2.3606457039       -2.6854896012        2.6926705599
 C           6.0    -2.1622244752        1.6548330474        3.3414134915
 C           6.0     0.4467312235        1.4541441476        3.7781291673
 C           6.0    -3.6845877309       -0.4862264966        3.1017962362
 C           6.0    -3.1450709614        3.2934144514        1.4817341470
 C           6.0    -0.1719650649       -3.0195931558       -2.9492953490
 C           6.0     2.4299986476       -2.7070324774       -2.7161031622
 C           6.0    -1.6695729102       -0.9382489529       -3.6789185529
 C           6.0    -1.0144049102       -4.3686685384       -0.8148498459
 C           6.0     5.4203010506       -0.1441860929       -1.2899269592
 C           6.0     3.6978158128       -0.4839588255       -3.1926920563
 C           6.0    -0.4240545116        1.4671832569       -3.8208369746
 C           6.0     2.1860350226        1.6610691432       -3.4576316397
 C           6.0    -3.1849441797       -3.6339430744        0.3798349235
 C           6.0    -4.9061066093       -1.9114578366       -0.5221312904
 C           6.0    -4.0640447092       -0.5192967014       -2.6153807670
 C           6.0    -5.5189447471       -0.1041239019        1.2870923702
 C           6.0    -5.2398322188        2.2621909799        0.2912067747
 C           6.0    -4.4395332630        1.9912042733       -2.1183828322

          INTERNUCLEAR DISTANCES (ANGS.)
          ------------------------------

                1 C          2 C          3 C          4 C          5 C     

   1 C       0.0000000    1.3836054 *  1.3490366 *  3.5359956    2.2828651 *
   2 C       1.3836054 *  0.0000000    2.1843954 *  2.4369862 *  1.4012727 *
   3 C       1.3490366 *  2.1843954 *  0.0000000    3.4802268    2.2531081 *
   4 C       3.5359956    2.4369862 *  3.4802268    0.0000000    1.3873427 *
   5 C       2.2828651 *  1.4012727 *  2.2531081 *  1.3873427 *  0.0000000  
   6 C       2.2232996 *  2.2061770 *  1.3650936 *  2.4142446 *  1.4032978 *
   7 C       4.0446900    2.8057642 *  4.3205294    1.4095381 *  2.4062610 *
   8 C       2.2163295 *  3.0671618    1.3645179 *  4.1001870    3.1647733  
   9 C       2.2333409 *  3.1189641    2.2295366 *  4.5987353    3.7241086  
  10 C       3.2449013    3.6971416    3.3044853    4.7292249    4.2214908  
  11 C       3.2464381    3.6309644    2.2593759 *  3.7605329    3.2443961  
  12 C       4.1463549    4.3385308    3.4621559    4.2039063    4.0518470  
  13 C       4.1241474    4.3445736    3.8544041    4.6655952    4.4730003  
  14 C       4.9766592    4.8006270    4.3550929    3.9490481    4.2595261  
  15 C       4.3080321    3.8625581    3.5445695    2.3443840 *  2.7535146 *
  16 C       3.2936774    3.2594196    2.2864610 *  2.7126237 *  2.3584228 *
  17 C       5.1835963    4.7534572    4.5071371    3.2576657    3.8665961  
  18 C       4.5045161    3.6428753    4.0859707    1.4074345 *  2.4575267 *
  19 C       4.1744850    3.8151053    4.4872941    4.0637481    4.1946269  
  20 C       3.2256520    3.2396090    3.7199053    4.3010061    3.9711633  
  21 C       4.3431002    3.5396593    4.7213645    3.2213038    3.7196308  
  22 C       4.7588695    4.5907331    4.6820763    4.4856167    4.6660802  
  23 C       1.3583490 *  2.1946701 *  2.1995465 *  4.2361290    3.2405816  
  24 C       2.2245023 *  2.2003276 *  3.1361165    3.9041477    3.2925606  
  25 C       3.4991672    2.4100498 *  4.0849027    2.3837824 *  2.7205552 *
  26 C       2.3040570 *  1.4154780 *  3.2066700    2.8118919 *  2.4011551 *
  27 C       5.3760839    5.0216381    5.0808355    4.2186052    4.7133603  
  28 C       5.7300648    5.0522880    5.5285235    3.7059114    4.5719122  
  29 C       5.2120180    4.3081171    5.3179101    3.1035005    4.0271634  
  30 C       5.8141097    5.0943144    5.3927329    3.2517583    4.2533911  
  31 C       5.4856509    4.5240117    5.2130126    2.3166130 *  3.5760186  
  32 C       5.1480507    4.0382772    5.2105814    2.2265946 *  3.4561450  

                6 C          7 C          8 C          9 C         10 C     

   1 C       2.2232996 *  4.0446900    2.2163295 *  2.2333409 *  3.2449013  
   2 C       2.2061770 *  2.8057642 *  3.0671618    3.1189641    3.6971416  
   3 C       1.3650936 *  4.3205294    1.3645179 *  2.2295366 *  3.3044853  
   4 C       2.4142446 *  1.4095381 *  4.1001870    4.5987353    4.7292249  
   5 C       1.4032978 *  2.4062610 *  3.1647733    3.7241086    4.2214908  
   6 C       0.0000000    3.5326461    2.1919351 *  3.2011910    3.9099014  
   7 C       3.5326461    0.0000000    4.7450148    4.8628807    4.6750386  
   8 C       2.1919351 *  4.7450148    0.0000000    1.4078059 *  2.3604170 *
   9 C       3.2011910    4.8628807    1.4078059 *  0.0000000    1.3717649 *
  10 C       3.9099014    4.6750386    2.3604170 *  1.3717649 *  0.0000000  
  11 C       2.2270508 *  4.4515714    1.4078736 *  2.4380868 *  2.7177670 *
  12 C       3.3792982    4.5205771    2.4452918 *  2.8355437 *  2.3813515 *
  13 C       4.0769840    4.6203039    2.7892933 *  2.4272808 *  1.3647043 *
  14 C       3.8634277    4.1245104    3.6177440    4.0278742    3.3991133  
  15 C       2.4296548 *  3.2165109    3.5486591    4.4450432    4.4449708  
  16 C       1.3928785 *  3.7243915    2.2937049 *  3.4148613    3.7682450  
  17 C       3.6197475    3.6346184    4.1440914    4.8028292    4.4094053  
  18 C       2.8559338 *  2.2157009 *  4.4093181    5.1052869    5.0685265  
  19 C       4.5123301    3.3836062    3.9885783    3.3266405    2.2717514 *
  20 C       4.1411658    3.8891178    3.2243128    2.2231269 *  1.3960671 *
  21 C       4.4101873    2.2066973 *  4.5787932    4.1832704    3.4282703  
  22 C       4.6306520    4.0805469    3.8731326    3.4711305    2.2785662 *
  23 C       3.1707018    4.3915091    2.2412214 *  1.3965409 *  2.2407150 *
  24 C       3.6713401    3.6224350    3.1402806    2.2346676 *  2.2530388 *
  25 C       3.7362215    1.3986966 *  4.3560518    4.0801130    3.7825041  
  26 C       3.2708013    2.4446459 *  3.6264939    3.2051679    3.2878112  
  27 C       4.6719602    3.9100061    4.3815876    4.3804541    3.4046489  
  28 C       4.8463922    3.2014630    5.1346181    5.2292931    4.3886270  
  29 C       4.6766018    2.1517294 *  5.1788916    5.0985324    4.3501074  
  30 C       4.4363278    3.1920303    5.1717690    5.6174220    5.0567187  
  31 C       4.1066817    2.2771048 *  5.3396634    5.8158158    5.4614360  
  32 C       4.3092767    1.3680303 *  5.3842972    5.5547234    5.1068439  

               11 C         12 C         13 C         14 C         15 C     

   1 C       3.2464381    4.1463549    4.1241474    4.9766592    4.3080321  
   2 C       3.6309644    4.3385308    4.3445736    4.8006270    3.8625581  
   3 C       2.2593759 *  3.4621559    3.8544041    4.3550929    3.5445695  
   4 C       3.7605329    4.2039063    4.6655952    3.9490481    2.3443840 *
   5 C       3.2443961    4.0518470    4.4730003    4.2595261    2.7535146 *
   6 C       2.2270508 *  3.3792982    4.0769840    3.8634277    2.4296548 *
   7 C       4.4515714    4.5205771    4.6203039    4.1245104    3.2165109  
   8 C       1.4078736 *  2.4452918 *  2.7892933 *  3.6177440    3.5486591  
   9 C       2.4380868 *  2.8355437 *  2.4272808 *  4.0278742    4.4450432  
  10 C       2.7177670 *  2.3813515 *  1.3647043 *  3.3991133    4.4449708  
  11 C       0.0000000    1.4101832 *  2.4090225 *  2.4080034 *  2.4806401 *
  12 C       1.4101832 *  0.0000000    1.4028156 *  1.3893903 *  2.7862838 *
  13 C       2.4090225 *  1.4028156 *  0.0000000    2.2334807 *  3.8417907  
  14 C       2.4080034 *  1.3893903 *  2.2334807 *  0.0000000    2.3246871 *
  15 C       2.4806401 *  2.7862838 *  3.8417907    2.3246871 *  0.0000000  
  16 C       1.4389042 *  2.4099274 *  3.4671120    2.7084444 *  1.4038312 *
  17 C       2.8869081 *  2.4689609 *  3.4465015    1.3755519 *  1.3959794 *
  18 C       3.6183549    3.8669000    4.6230538    3.2547190    1.4109639 *
  19 C       3.8404497    3.1290717    2.1996176 *  3.2072563    4.2789604  
  20 C       3.5643965    3.2205318    2.1858993 *  3.8234867    4.6377153  
  21 C       4.3181488    3.8116920    3.3044543    3.5152500    3.9688943  
  22 C       3.3435181    2.2167013 *  1.3765032 *  2.1785241 *  3.9200066  
  23 C       3.3373794    3.8586661    3.4059506    4.8170374    4.7971743  
  24 C       3.8278481    3.9662969    3.2655332    4.6189986    4.7804667  
  25 C       4.3539233    4.3120090    4.0073295    4.2142202    3.9013780  
  26 C       4.0634830    4.3244623    3.9483479    4.6552892    4.2707723  
  27 C       3.4504723    2.2854409 *  2.2704425 *  1.3928766 *  3.2529579  
  28 C       4.1986784    3.3330367    3.4651887    2.2082261 *  3.1384404  
  29 C       4.5533726    3.9482615    3.8256186    3.1648768    3.5032636  
  30 C       4.0669396    3.5229847    4.1364754    2.2830765 *  2.2810999 *
  31 C       4.4467198    4.2626826    4.8287174    3.2850055    2.3153736 *
  32 C       4.7601695    4.5089726    4.6924795    3.7170502    3.1355106  

               16 C         17 C         18 C         19 C         20 C     

   1 C       3.2936774    5.1835963    4.5045161    4.1744850    3.2256520  
   2 C       3.2594196    4.7534572    3.6428753    3.8151053    3.2396090  
   3 C       2.2864610 *  4.5071371    4.0859707    4.4872941    3.7199053  
   4 C       2.7126237 *  3.2576657    1.4074345 *  4.0637481    4.3010061  
   5 C       2.3584228 *  3.8665961    2.4575267 *  4.1946269    3.9711633  
   6 C       1.3928785 *  3.6197475    2.8559338 *  4.5123301    4.1411658  
   7 C       3.7243915    3.6346184    2.2157009 *  3.3836062    3.8891178  
   8 C       2.2937049 *  4.1440914    4.4093181    3.9885783    3.2243128  
   9 C       3.4148613    4.8028292    5.1052869    3.3266405    2.2231269 *
  10 C       3.7682450    4.4094053    5.0685265    2.2717514 *  1.3960671 *
  11 C       1.4389042 *  2.8869081 *  3.6183549    3.8404497    3.5643965  
  12 C       2.4099274 *  2.4689609 *  3.8669000    3.1290717    3.2205318  
  13 C       3.4671120    3.4465015    4.6230538    2.1996176 *  2.1858993 *
  14 C       2.7084444 *  1.3755519 *  3.2547190    3.2072563    3.8234867  
  15 C       1.4038312 *  1.3959794 *  1.4109639 *  4.2789604    4.6377153  
  16 C       0.0000000    2.4416964 *  2.4569665 *  4.2878169    4.2143177  
  17 C       2.4416964 *  0.0000000    2.1947377 *  3.9377392    4.6183594  
  18 C       2.4569665 *  2.1947377 *  0.0000000    4.3742012    4.8704033  
  19 C       4.2878169    3.9377392    4.3742012    0.0000000    1.3922781 *
  20 C       4.2143177    4.6183594    4.8704033    1.3922781 *  0.0000000  
  21 C       4.2928589    3.7509188    3.6168948    1.4107485 *  2.4170194 *
  22 C       3.9999473    3.2424081    4.3804100    1.4086025 *  2.2600091 *
  23 C       3.8516052    5.3523663    5.0994898    3.4414797    2.2164928 *
  24 C       4.1974846    5.1338504    4.8194049    2.4516324 *  1.3775444 *
  25 C       4.0475219    4.1791516    3.2986174    2.4223545 *  2.7389784 *
  26 C       3.9395898    4.7948594    3.9416629    2.7864672 *  2.3481220 *
  27 C       3.7652031    2.2179306 *  3.7119456    2.3982052 *  3.4283000  
  28 C       4.0464724    2.1596814 *  3.0950047    2.8756869 *  4.0738020  
  29 C       4.2702518    3.0321069    3.0013089    2.4543367 *  3.6266572  
  30 C       3.5190388    1.3803331 *  2.1956985 *  3.9258081    4.9070001  
  31 C       3.5556841    2.2371119 *  1.3868889 *  4.2361085    5.0912077  
  32 C       4.0623745    3.0836950    2.1385719 *  3.5105893    4.4154179  

               21 C         22 C         23 C         24 C         25 C     

   1 C       4.3431002    4.7588695    1.3583490 *  2.2245023 *  3.4991672  
   2 C       3.5396593    4.5907331    2.1946701 *  2.2003276 *  2.4100498 *
   3 C       4.7213645    4.6820763    2.1995465 *  3.1361165    4.0849027  
   4 C       3.2213038    4.4856167    4.2361290    3.9041477    2.3837824 *
   5 C       3.7196308    4.6660802    3.2405816    3.2925606    2.7205552 *
   6 C       4.4101873    4.6306520    3.1707018    3.6713401    3.7362215  
   7 C       2.2066973 *  4.0805469    4.3915091    3.6224350    1.3986966 *
   8 C       4.5787932    3.8731326    2.2412214 *  3.1402806    4.3560518  
   9 C       4.1832704    3.4711305    1.3965409 *  2.2346676 *  4.0801130  
  10 C       3.4282703    2.2785662 *  2.2407150 *  2.2530388 *  3.7825041  
  11 C       4.3181488    3.3435181    3.3373794    3.8278481    4.3539233  
  12 C       3.8116920    2.2167013 *  3.8586661    3.9662969    4.3120090  
  13 C       3.3044543    1.3765032 *  3.4059506    3.2655332    4.0073295  
  14 C       3.5152500    2.1785241 *  4.8170374    4.6189986    4.2142202  
  15 C       3.9688943    3.9200066    4.7971743    4.7804667    3.9013780  
  16 C       4.2928589    3.9999473    3.8516052    4.1974846    4.0475219  
  17 C       3.7509188    3.2424081    5.3523663    5.1338504    4.1791516  
  18 C       3.6168948    4.3804100    5.0994898    4.8194049    3.2986174  
  19 C       1.4107485 *  1.4086025 *  3.4414797    2.4516324 *  2.4223545 *
  20 C       2.4170194 *  2.2600091 *  2.2164928 *  1.3775444 *  2.7389784 *
  21 C       0.0000000    2.3900959 *  3.9813029    2.8620446 *  1.4353840 *
  22 C       2.3900959 *  0.0000000    4.0810989    3.4680344    3.4878216  
  23 C       3.9813029    4.0810989    0.0000000    1.3700394 *  3.4764371  
  24 C       2.8620446 *  3.4680344    1.3700394 *  0.0000000    2.4360171 *
  25 C       1.4353840 *  3.4878216    3.4764371    2.4360171 *  0.0000000  
  26 C       2.4634400 *  3.8736659    2.2710501 *  1.3957464 *  1.3982779 *
  27 C       2.7001835 *  1.3675249 *  4.9927181    4.4292400    3.7897976  
  28 C       2.4472712 *  2.4404718 *  5.5588163    4.8267559    3.4451620  
  29 C       1.4040788 *  2.7679500 *  5.0715601    4.1187880    2.2852099 *
  30 C       3.3541111    3.4658234    5.9472962    5.4266196    3.9072441  
  31 C       3.2941640    4.2017438    5.8432545    5.2801295    3.3773225  
  32 C       2.2877140 *  3.8842722    5.3565329    4.5366580    2.3245894 *

               26 C         27 C         28 C         29 C         30 C     

   1 C       2.3040570 *  5.3760839    5.7300648    5.2120180    5.8141097  
   2 C       1.4154780 *  5.0216381    5.0522880    4.3081171    5.0943144  
   3 C       3.2066700    5.0808355    5.5285235    5.3179101    5.3927329  
   4 C       2.8118919 *  4.2186052    3.7059114    3.1035005    3.2517583  
   5 C       2.4011551 *  4.7133603    4.5719122    4.0271634    4.2533911  
   6 C       3.2708013    4.6719602    4.8463922    4.6766018    4.4363278  
   7 C       2.4446459 *  3.9100061    3.2014630    2.1517294 *  3.1920303  
   8 C       3.6264939    4.3815876    5.1346181    5.1788916    5.1717690  
   9 C       3.2051679    4.3804541    5.2292931    5.0985324    5.6174220  
  10 C       3.2878112    3.4046489    4.3886270    4.3501074    5.0567187  
  11 C       4.0634830    3.4504723    4.1986784    4.5533726    4.0669396  
  12 C       4.3244623    2.2854409 *  3.3330367    3.9482615    3.5229847  
  13 C       3.9483479    2.2704425 *  3.4651887    3.8256186    4.1364754  
  14 C       4.6552892    1.3928766 *  2.2082261 *  3.1648768    2.2830765 *
  15 C       4.2707723    3.2529579    3.1384404    3.5032636    2.2810999 *
  16 C       3.9395898    3.7652031    4.0464724    4.2702518    3.5190388  
  17 C       4.7948594    2.2179306 *  2.1596814 *  3.0321069    1.3803331 *
  18 C       3.9416629    3.7119456    3.0950047    3.0013089    2.1956985 *
  19 C       2.7864672 *  2.3982052 *  2.8756869 *  2.4543367 *  3.9258081  
  20 C       2.3481220 *  3.4283000    4.0738020    3.6266572    4.9070001  
  21 C       2.4634400 *  2.7001835 *  2.4472712 *  1.4040788 *  3.3541111  
  22 C       3.8736659    1.3675249 *  2.4404718 *  2.7679500 *  3.4658234  
  23 C       2.2710501 *  4.9927181    5.5588163    5.0715601    5.9472962  
  24 C       1.3957464 *  4.4292400    4.8267559    4.1187880    5.4266196  
  25 C       1.3982779 *  3.7897976    3.4451620    2.2852099 *  3.9072441  
  26 C       0.0000000    4.4780629    4.4801842    3.5311185    4.8786304  
  27 C       4.4780629    0.0000000    1.3741194 *  2.3334951 *  2.2902005 *
  28 C       4.4801842    1.3741194 *  0.0000000    1.4029560 *  1.3915769 *
  29 C       3.5311185    2.3334951 *  1.4029560 *  0.0000000    2.2148707 *
  30 C       4.8786304    2.2902005 *  1.3915769 *  2.2148707 *  0.0000000  
  31 C       4.4134347    3.3044912    2.2570657 *  2.2179662 *  1.3665830 *
  32 C       3.5812725    3.3240322    2.2448895 *  1.3687816 *  2.1916367 *

               31 C         32 C     

   1 C       5.4856509    5.1480507  
   2 C       4.5240117    4.0382772  
   3 C       5.2130126    5.2105814  
   4 C       2.3166130 *  2.2265946 *
   5 C       3.5760186    3.4561450  
   6 C       4.1066817    4.3092767  
   7 C       2.2771048 *  1.3680303 *
   8 C       5.3396634    5.3842972  
   9 C       5.8158158    5.5547234  
  10 C       5.4614360    5.1068439  
  11 C       4.4467198    4.7601695  
  12 C       4.2626826    4.5089726  
  13 C       4.8287174    4.6924795  
  14 C       3.2850055    3.7170502  
  15 C       2.3153736 *  3.1355106  
  16 C       3.5556841    4.0623745  
  17 C       2.2371119 *  3.0836950  
  18 C       1.3868889 *  2.1385719 *
  19 C       4.2361085    3.5105893  
  20 C       5.0912077    4.4154179  
  21 C       3.2941640    2.2877140 *
  22 C       4.2017438    3.8842722  
  23 C       5.8432545    5.3565329  
  24 C       5.2801295    4.5366580  
  25 C       3.3773225    2.3245894 *
  26 C       4.4134347    3.5812725  
  27 C       3.3044912    3.3240322  
  28 C       2.2570657 *  2.2448895 *
  29 C       2.2179662 *  1.3687816 *
  30 C       1.3665830 *  2.1916367 *
  31 C       0.0000000    1.3512201 *
  32 C       1.3512201 *  0.0000000  

  * ... LESS THAN  3.000


 TOTAL NUMBER OF BASIS SET SHELLS             =   32
 NUMBER OF CARTESIAN GAUSSIAN BASIS FUNCTIONS =  128
 NUMBER OF ELECTRONS                          =  128
 CHARGE OF MOLECULE                           =    0
 SPIN MULTIPLICITY                            =    1
 NUMBER OF OCCUPIED ORBITALS (ALPHA)          =   64
 NUMBER OF OCCUPIED ORBITALS (BETA )          =   64
 TOTAL NUMBER OF ATOMS                        =   32
 THE NUCLEAR REPULSION ENERGY IS     3164.4138931423

 THE PARAMETERS USED IN THIS CALCULATION ARE DESCRIBED IN:

  C: (PM3): J. J. P. STEWART, J. COMP. CHEM. 10, 209 (1989).                    

 THERE ARE   32 HEAVY AND    0 LIGHT ATOMS,
 YIELDING A TOTAL OF     49600 MOPAC 2E- INTEGRALS.

     $CONTRL OPTIONS
     ---------------
 SCFTYP=RHF          RUNTYP=OPTIMIZE     EXETYP=RUN     
 MPLEVL=       0     CITYP =NONE         CCTYP =NONE         VBTYP =NONE    
 DFTTYP=NONE         TDDFT =NONE    
 MULT  =       1     ICHARG=       0     NZVAR =       0     COORD =UNIQUE  
 PP    =NONE         RELWFN=NONE         LOCAL =NONE         NUMGRD=       F
 ISPHER=      -1     NOSYM =       0     MAXIT =     200     UNITS =ANGS    
 PLTORB=       F     MOLPLT=       F     AIMPAC=       F     FRIEND=        
 NPRINT=       7     IREST =       0     GEOM  =INPUT   
 NORMF =       0     NORMP =       0     ITOL  =      20     ICUT  =       9
 INTTYP=BEST         GRDTYP=BEST         QMTTOL= 1.0E-06

     $SYSTEM OPTIONS
     ---------------
  REPLICATED MEMORY=    10000000 WORDS (ON EVERY NODE).
 DISTRIBUTED MEMDDI=           0 MILLION WORDS IN AGGREGATE,
 MEMDDI DISTRIBUTED OVER   2 PROCESSORS IS           0 WORDS/PROCESSOR.
 TOTAL MEMORY REQUESTED ON EACH PROCESSOR=    10000000 WORDS.
 TIMLIM=      525600.00 MINUTES, OR     365.0 DAYS.
 PARALL= T  BALTYP=  DLB     KDIAG=    0  COREFL= F
 MXSEQ2=     300 MXSEQ3=     150  mem10=         0  mem22=         0

          ----------------
          PROPERTIES INPUT
          ----------------

     MOMENTS            FIELD           POTENTIAL          DENSITY
 IEMOM =       1   IEFLD =       0   IEPOT =       0   IEDEN =       0
 WHERE =COMASS     WHERE =NUCLEI     WHERE =NUCLEI     WHERE =NUCLEI  
 OUTPUT=BOTH       OUTPUT=BOTH       OUTPUT=BOTH       OUTPUT=BOTH    
 IEMINT=       0   IEFINT=       0                     IEDINT=       0
                                                       MORB  =       0
          EXTRAPOLATION IN EFFECT
          SOSCF IN EFFECT
 ORBITAL PRINTING OPTION: NPREO=     1   128     2     1

     -------------------------------
     INTEGRAL TRANSFORMATION OPTIONS
     -------------------------------
     NWORD  =            0
     CUTTRF = 1.0E-09     MPTRAN =       0
     DIRTRF =       T     AOINTS =DUP     

          ----------------------
          INTEGRAL INPUT OPTIONS
          ----------------------
 NOPK  =       1 NORDER=       0 SCHWRZ=       T

     ------------------------------------------
     THE POINT GROUP IS C1 , NAXIS= 0, ORDER= 1
     ------------------------------------------

     DIMENSIONS OF THE SYMMETRY SUBSPACES ARE
 A   =  128

 ..... DONE SETTING UP THE RUN .....
 CPU     0: STEP CPU TIME=     0.03 TOTAL CPU TIME=          0.0 (      0.0 MIN)
 TOTAL WALL CLOCK TIME=          0.0 SECONDS, CPU UTILIZATION IS    66.49%


          -----------------------------
          STATIONARY POINT LOCATION RUN
          -----------------------------

 OBTAINING INITIAL HESSIAN, HESS=GUESS   
 CARTESIAN COORDINATE OPTIMIZATION USING BADGER'S RULE FORCE CONSTANT GUESS

          PARAMETERS CONTROLLING GEOMETRY SEARCH ARE
          METHOD =QA                  UPHESS =BFGS    
          NNEG   =         0          NFRZ   =         0
          NSTEP  =       100          IFOLOW =         1
          HESS   =GUESS               RESTAR =         F
          IHREP  =         0          HSSEND =         F
          NPRT   =         0          NPUN   =         0
          OPTTOL = 1.000E-03          RMIN   = 1.500E-03
          RMAX   = 1.000E-01          RLIM   = 7.000E-02
          DXMAX  = 3.000E-01          PURIFY =         F
          MOVIE  =         F          TRUPD  =         T
          TRMAX  = 5.000E-01          TRMIN  = 5.000E-02
          ITBMAT =         5          STPT   =         F
          STSTEP = 1.000E-02          PROJCT=          T

 BEGINNING GEOMETRY SEARCH POINT NSERCH=   0 ...

 COORDINATES OF ALL ATOMS ARE (ANGS)
   ATOM   CHARGE       X              Y              Z
 ------------------------------------------------------------
 C           6.0   2.7045000000   1.1609000000  -0.1463000000
 C           6.0   1.6193000000   1.7249000000  -0.7933000000
 C           6.0   2.3421000000   1.0267000000   1.1462000000
 C           6.0  -0.6869000000   2.1617000000  -0.1379000000
 C           6.0   0.6716000000   2.1583000000   0.1435000000
 C           6.0   1.1312000000   1.6211000000   1.3557000000
 C           6.0  -1.1262000000   1.6173000000  -1.3616000000
 C           6.0   2.1893000000  -0.2966000000   1.4419000000
 C           6.0   2.6003000000  -1.0232000000   0.3083000000
 C           6.0   1.6960000000  -1.9229000000  -0.1962000000
 C           6.0   0.9062000000  -0.5039000000   1.9830000000
 C           6.0   0.1222000000  -1.5975000000   1.5611000000
 C           6.0   0.5417000000  -2.3040000000   0.4241000000
 C           6.0  -1.2492000000  -1.4211000000   1.4249000000
 C           6.0  -1.1442000000   0.8757000000   1.7682000000
 C           6.0   0.2364000000   0.7695000000   1.9993000000
 C           6.0  -1.9498000000  -0.2573000000   1.6414000000
 C           6.0  -1.6643000000   1.7428000000   0.7841000000
 C           6.0  -0.0910000000  -1.5979000000  -1.5607000000
 C           6.0   1.2859000000  -1.4325000000  -1.4373000000
 C           6.0  -0.8835000000  -0.4965000000  -1.9468000000
 C           6.0  -0.5368000000  -2.3118000000  -0.4312000000
 C           6.0   2.8683000000  -0.0763000000  -0.6826000000
 C           6.0   1.9568000000  -0.2561000000  -1.6895000000
 C           6.0  -0.2244000000   0.7764000000  -2.0219000000
 C           6.0   1.1568000000   0.8790000000  -1.8297000000
 C           6.0  -1.6854000000  -1.9230000000   0.2010000000
 C           6.0  -2.5962000000  -1.0115000000  -0.2763000000
 C           6.0  -2.1506000000  -0.2748000000  -1.3840000000
 C           6.0  -2.9205000000  -0.0551000000   0.6811000000
 C           6.0  -2.7728000000   1.1971000000   0.1541000000
 C           6.0  -2.3493000000   1.0537000000  -1.1210000000

          ********************
          1 ELECTRON INTEGRALS
          ********************

          **************************
          1 AND 2 ELECTRON INTEGRALS
          **************************

 MOPAC ONE- AND TWO-ELECTRON INTEGRALS REQUIRE     66112 WORDS.
 ...... END OF ONE- AND TWO-ELECTRON INTEGRALS......
 CPU     0: STEP CPU TIME=     0.00 TOTAL CPU TIME=          0.0 (      0.0 MIN)
 TOTAL WALL CLOCK TIME=          0.0 SECONDS, CPU UTILIZATION IS    66.49%
 ...... END OF ONE-ELECTRON INTEGRALS ......
 CPU     0: STEP CPU TIME=     0.00 TOTAL CPU TIME=          0.0 (      0.0 MIN)
 TOTAL WALL CLOCK TIME=          0.0 SECONDS, CPU UTILIZATION IS    66.49%

          -------------
          GUESS OPTIONS
          -------------
          GUESS =HUCKEL            NORB  =       0          NORDER=       0
          MIX   =       F          PRTMO =       F          PUNMO =       F
          TOLZ  = 1.0E-08          TOLE  = 1.0E-05
          SYMDEN=       F          PURIFY=       F

 INITIAL GUESS ORBITALS GENERATED BY HUCKEL   ROUTINE.

 SYMMETRIES FOR INITIAL GUESS ORBITALS FOLLOW.   BOTH SET(S).
    64 ORBITALS ARE OCCUPIED (    0 CORE ORBITALS).
     1=A        2=A        3=A        4=A        5=A        6=A        7=A   
     8=A        9=A       10=A       11=A       12=A       13=A       14=A   
    15=A       16=A       17=A       18=A       19=A       20=A       21=A   
    22=A       23=A       24=A       25=A       26=A       27=A       28=A   
    29=A       30=A       31=A       32=A       33=A       34=A       35=A   
    36=A       37=A       38=A       39=A       40=A       41=A       42=A   
    43=A       44=A       45=A       46=A       47=A       48=A       49=A   
    50=A       51=A       52=A       53=A       54=A       55=A       56=A   
    57=A       58=A       59=A       60=A       61=A       62=A       63=A   
    64=A       65=A       66=A       67=A       68=A       69=A       70=A   
    71=A       72=A       73=A       74=A   
 ...... END OF INITIAL ORBITAL SELECTION ......
 CPU     0: STEP CPU TIME=     0.02 TOTAL CPU TIME=          0.0 (      0.0 MIN)
 TOTAL WALL CLOCK TIME=          0.1 SECONDS, CPU UTILIZATION IS    74.40%

          --------------------------
               R-PM3 SCF CALCULATION
          --------------------------

     NUCLEAR ENERGY =      1255.9635724222
     MAXIT =  200     NPUNCH=    2
     EXTRAP=T  DAMP=F  SHIFT=F  RSTRCT=F  DIIS=F  DEM=F  SOSCF=T
     DENSITY MATRIX CONV=  2.00E-05
     SOSCF WILL OPTIMIZE    4096 ORBITAL ROTATIONS, SOGTOL=   0.250
     MEMORY REQUIRED FOR RHF ITERS=    182976 WORDS.

                                                                                   NONZERO     BLOCKS
 ITER EX DEM     TOTAL ENERGY        E CHANGE  DENSITY CHANGE     ORB. GRAD      INTEGRALS    SKIPPED
   1  0  0     -136.7666359630  -136.7666359630   0.173073420   0.000000000              0          0
          ---------------START SECOND ORDER SCF---------------
   2  1  0     -137.7561904104    -0.9895544474   0.051683351   0.017674245              0          0
   3  2  0     -137.8350155105    -0.0788251001   0.029607294   0.006336326              0          0
   4  3  0     -137.8443472352    -0.0093317247   0.015246822   0.007340224              0          0
   5  4  0     -137.8473429725    -0.0029957373   0.008297015   0.003165359              0          0
   6  5  0     -137.8481324680    -0.0007894955   0.026085596   0.002114354              0          0
   7  6  0     -137.8492059956    -0.0010735276   0.007757518   0.001482051              0          0
   8  7  0     -137.8494865677    -0.0002805721   0.007715598   0.001562906              0          0
   9  8  0     -137.8497299184    -0.0002433507   0.009194575   0.000799395              0          0
  10  9  0     -137.8498784144    -0.0001484961   0.005042804   0.000743139              0          0
  11 10  0     -137.8499393094    -0.0000608949   0.006794200   0.000670258              0          0
  12 11  0     -137.8499959099    -0.0000566005   0.007689182   0.000579283              0          0
  13 12  0     -137.8500430238    -0.0000471139   0.009159864   0.000447879              0          0
  14 13  0     -137.8500885597    -0.0000455359   0.007162204   0.000283350              0          0
  15 14  0     -137.8501199979    -0.0000314382   0.004687162   0.000207389              0          0
  16 15  0     -137.8501379486    -0.0000179507   0.002308714   0.000146890              0          0
  17 16  0     -137.8501453212    -0.0000073726   0.001102971   0.000124419              0          0
  18 17  0     -137.8501481243    -0.0000028030   0.000673948   0.000076763              0          0
  19 18  0     -137.8501494430    -0.0000013187   0.000740183   0.000070282              0          0
  20 19  0     -137.8501503037    -0.0000008607   0.000804585   0.000055003              0          0
  21 20  0     -137.8501509757    -0.0000006720   0.000702461   0.000037541              0          0
  22 21  0     -137.8501514750    -0.0000004993   0.000537213   0.000032730              0          0
  23 22  0     -137.8501517661    -0.0000002911   0.000269148   0.000021681              0          0
  24 23  0     -137.8501518888    -0.0000001227   0.000105438   0.000016387              0          0
  25 24  0     -137.8501519269    -0.0000000381   0.000046906   0.000008585              0          0
  26 25  0     -137.8501519367    -0.0000000098   0.000019609   0.000003481              0          0
  27 26  0     -137.8501519391    -0.0000000024   0.000012441   0.000001700              0          0

          -----------------
          DENSITY CONVERGED
          -----------------
     TIME TO FORM FOCK OPERATORS=       0.0 SECONDS (       0.0 SEC/ITER)
     FOCK TIME ON FIRST ITERATION=       0.0, LAST ITERATION=       0.0
     TIME TO SOLVE SCF EQUATIONS=       0.2 SECONDS (       0.0 SEC/ITER)

 FINAL R-PM3 ENERGY IS     -137.8501519391 AFTER  27 ITERATIONS

 HEAT OF FORMATION IS      1046.00197 KCAL/MOL
 

          ------------
          EIGENVECTORS
          ------------

                      1          2          3          4          5
                   -1.9599    -1.7886    -1.6542    -1.5881    -1.4141
                     A          A          A          A          A   
    1  C  1  S    0.180356   0.248703  -0.143996  -0.000275   0.167095
    2  C  1  X   -0.050260  -0.057723   0.051711   0.000993   0.006739
    3  C  1  Y   -0.035133  -0.055833  -0.007343  -0.010754  -0.092555
    4  C  1  Z    0.007370   0.010926  -0.016065  -0.060580  -0.027515
    5  C  2  S    0.173865   0.174840  -0.185234   0.079880  -0.023983
    6  C  2  X   -0.009778   0.024430   0.023055  -0.017833   0.086586
    7  C  2  Y   -0.042756  -0.053930   0.017251  -0.037635  -0.050067
    8  C  2  Z    0.025618   0.032218  -0.044750  -0.053217  -0.023885
    9  C  3  S    0.180620   0.228717  -0.152961  -0.161858   0.014683
   10  C  3  X   -0.038290  -0.030732   0.041923   0.058735   0.069514
   11  C  3  Y   -0.025260  -0.037135  -0.015290   0.024638  -0.045955
   12  C  3  Z   -0.036891  -0.055752   0.033837  -0.019601  -0.057226
   13  C  4  S    0.168540  -0.093451  -0.229958   0.048184  -0.202342
   14  C  4  X   -0.004328   0.057378  -0.003826  -0.013102  -0.054521
   15  C  4  Y   -0.043993   0.031918   0.045319  -0.016118   0.028944
   16  C  4  Z    0.000850   0.002789  -0.003555  -0.064630   0.013052
   17  C  5  S    0.166392   0.080247  -0.234134  -0.033531  -0.220145
   18  C  5  X    0.002690   0.056311   0.001978  -0.013478   0.040999
   19  C  5  Y   -0.043257  -0.029288   0.046872   0.013223   0.032439
   20  C  5  Z    0.000114   0.003624  -0.001515  -0.064911  -0.009568
   21  C  6  S    0.172112   0.135891  -0.197687  -0.204031  -0.195476
   22  C  6  X   -0.001095   0.040549   0.004708   0.010125   0.050020
   23  C  6  Y   -0.037457  -0.036152   0.016241   0.065854   0.021459
   24  C  6  Z   -0.033059  -0.032342   0.050835  -0.009771   0.016955
   25  C  7  S    0.171815  -0.141658  -0.177424   0.213143  -0.185084
   26  C  7  X    0.000474   0.040513  -0.005376   0.011595  -0.056832
   27  C  7  Y   -0.036297   0.034619   0.008847  -0.064295   0.024310
   28  C  7  Z    0.034021  -0.035513  -0.050429  -0.005776  -0.008771
   29  C  8  S    0.171965   0.204587  -0.022394  -0.175890   0.038358
   30  C  8  X   -0.026783  -0.010769  -0.005991   0.057350   0.064150
   31  C  8  Y    0.019445   0.029374  -0.057734  -0.035153  -0.010877
   32  C  8  Z   -0.040723  -0.060115  -0.001123  -0.008548  -0.073061
   33  C  9  S    0.172479   0.223894   0.074184  -0.003279   0.211994
   34  C  9  X   -0.041118  -0.039325  -0.041611   0.005035  -0.002991
   35  C  9  Y    0.033138   0.054825  -0.041168  -0.014870   0.060894
   36  C  9  Z   -0.016089  -0.023814  -0.019846  -0.059411  -0.060737
   37  C 10  S    0.169008   0.151790   0.236619   0.062280   0.044051
   38  C 10  X   -0.024095   0.009646  -0.074675  -0.004652   0.081796
   39  C 10  Y    0.043274   0.054851   0.019886   0.019285   0.061872
   40  C 10  Z   -0.002821  -0.004219  -0.007258  -0.055786  -0.019150
   41  C 11  S    0.156708   0.090548   0.036033  -0.260187  -0.142362
   42  C 11  X   -0.003598   0.038901  -0.020784   0.022581   0.030982
   43  C 11  Y    0.014634   0.017524  -0.059940  -0.039015  -0.021982
   44  C 11  Z   -0.038814  -0.028889  -0.018040   0.038757   0.015674
   45  C 12  S    0.156191   0.004907   0.217892  -0.200323  -0.151221
   46  C 12  X   -0.005872   0.042038  -0.020422   0.015392  -0.003351
   47  C 12  Y    0.021826   0.003887  -0.016185  -0.052542  -0.009046
   48  C 12  Z   -0.035208  -0.001724  -0.075825   0.005703   0.031911
   49  C 13  S    0.163389   0.045683   0.316299  -0.044395  -0.156335
   50  C 13  X   -0.010936   0.037125  -0.038965   0.022891   0.047701
   51  C 13  Y    0.042552   0.017028   0.060530  -0.018808  -0.023872
   52  C 13  Z   -0.015823  -0.010612  -0.042452  -0.056083   0.008671
   53  C 14  S    0.169219  -0.123635   0.202803  -0.208394  -0.000819
   54  C 14  X    0.008601   0.032191   0.035456  -0.021236  -0.087837
   55  C 14  Y    0.024990  -0.031184  -0.021861  -0.044006   0.044355
   56  C 14  Z   -0.037103   0.032334  -0.061387   0.008616  -0.003597
   57  C 15  S    0.167576  -0.129272  -0.092134  -0.222162  -0.000615
   58  C 15  X    0.000680   0.046146  -0.008157  -0.027937  -0.099113
   59  C 15  Y   -0.015975   0.015705  -0.037776   0.041512  -0.029679
   60  C 15  Z   -0.041512   0.044187   0.034846   0.017872  -0.016743
   61  C 16  S    0.159455   0.036044  -0.097188  -0.276966  -0.188782
   62  C 16  X    0.005979   0.056426  -0.012863  -0.012931  -0.029592
   63  C 16  Y   -0.010159  -0.001661  -0.039883   0.031886  -0.006886
   64  C 16  Z   -0.038442  -0.010611   0.034091   0.042821   0.039606
   65  C 17  S    0.173928  -0.195606   0.035614  -0.209560   0.178374
   66  C 17  X    0.018809   0.004687   0.013591  -0.048699  -0.053438
   67  C 17  Y    0.008184  -0.015459  -0.058222  -0.002057   0.017212
   68  C 17  Z   -0.047545   0.064613  -0.010478   0.022906  -0.071672
   69  C 18  S    0.178517  -0.191390  -0.185075  -0.063195   0.021476
   70  C 18  X    0.010463   0.022577  -0.026105  -0.017012  -0.089429
   71  C 18  Y   -0.044426   0.057299   0.017864   0.034732  -0.058133
   72  C 18  Z   -0.026290   0.035091   0.040057  -0.054235   0.016598
   73  C 19  S    0.157789   0.006151   0.231354   0.186488  -0.158136
   74  C 19  X    0.006779   0.043229   0.018773   0.016518   0.017217
   75  C 19  Y    0.022026  -0.003530  -0.012908   0.054355  -0.012257
   76  C 19  Z    0.035449   0.000901   0.076337   0.000262  -0.031958
   77  C 20  S    0.171289   0.134627   0.207054   0.200734   0.028919
   78  C 20  X   -0.009004   0.030056  -0.039608  -0.018315   0.094800
   79  C 20  Y    0.025921   0.031901  -0.020295   0.048315   0.044887
   80  C 20  Z    0.037677   0.034982   0.060109   0.004645   0.014603
   81  C 21  S    0.159155  -0.087098   0.057128   0.256680  -0.165738
   82  C 21  X    0.004134   0.040224   0.020040   0.023823  -0.028550
   83  C 21  Y    0.014509  -0.019414  -0.058858   0.043134  -0.020858
   84  C 21  Z    0.037938  -0.027779   0.022138   0.033357  -0.018743
   85  C 22  S    0.161897  -0.034380   0.318658   0.020803  -0.171687
   86  C 22  X    0.012059   0.037503   0.039249   0.020493  -0.034410
   87  C 22  Y    0.042692  -0.014854   0.063126   0.014188  -0.029587
   88  C 22  Z    0.015541  -0.009414   0.039538  -0.058004  -0.011082
   89  C 23  S    0.181074   0.255073  -0.017544   0.091546   0.304201
   90  C 23  X   -0.055392  -0.069175  -0.002054  -0.041213  -0.062973
   91  C 23  Y    0.006936   0.013363  -0.054117  -0.007663  -0.003108
   92  C 23  Z    0.021788   0.035627  -0.012909  -0.044308   0.027350
   93  C 24  S    0.172384   0.194277   0.036133   0.217367   0.181512
   94  C 24  X   -0.019114   0.003078  -0.015586  -0.047947   0.052756
   95  C 24  Y    0.006149   0.010662  -0.057362   0.004877   0.000457
   96  C 24  Z    0.048883   0.066297   0.008644   0.027307   0.078403
   97  C 25  S    0.157067  -0.036236  -0.078204   0.281100  -0.200472
   98  C 25  X   -0.005592   0.055348   0.008611  -0.010603   0.027519
   99  C 25  Y   -0.011056   0.000175  -0.039741  -0.030645  -0.002523
  100  C 25  Z    0.038657  -0.012212  -0.030460   0.046629  -0.041877
  101  C 26  S    0.160657   0.120160  -0.081056   0.230261  -0.021941
  102  C 26  X   -0.002270   0.042173   0.005188  -0.027892   0.093677
  103  C 26  Y   -0.017607  -0.018595  -0.035098  -0.041111  -0.032377
  104  C 26  Z    0.041051   0.041592  -0.034519   0.024250   0.010225
  105  C 27  S    0.165515  -0.140193   0.238651  -0.078098   0.001120
  106  C 27  X    0.024495   0.011208   0.073677  -0.010483  -0.081075
  107  C 27  Y    0.042472  -0.052910   0.021907  -0.020269   0.051621
  108  C 27  Z    0.002204  -0.003714   0.003289  -0.052968   0.019828
  109  C 28  S    0.170493  -0.218985   0.085941  -0.008375   0.182177
  110  C 28  X    0.040522  -0.037202   0.043864   0.000471  -0.006998
  111  C 28  Y    0.033547  -0.056673  -0.036815   0.015176   0.068020
  112  C 28  Z    0.015121  -0.022214   0.016489  -0.057521   0.055808
  113  C 29  S    0.175761  -0.207742  -0.001678   0.170174   0.021536
  114  C 29  X    0.025750  -0.007704   0.010076   0.056150  -0.072766
  115  C 29  Y    0.019647  -0.031574  -0.057176   0.038589  -0.002748
  116  C 29  Z    0.039428  -0.058809   0.004186  -0.014227   0.072651
  117  C 30  S    0.175268  -0.249561  -0.011000  -0.082132   0.295655
  118  C 30  X    0.056301  -0.071791   0.002899  -0.038819   0.066926
  119  C 30  Y    0.007844  -0.016160  -0.050810   0.010872   0.012518
  120  C 30  Z   -0.021702   0.035514   0.008055  -0.038788  -0.026797
  121  C 31  S    0.176722  -0.250966  -0.129675   0.008761   0.198082
  122  C 31  X    0.053528  -0.065877  -0.051134   0.004801   0.011830
  123  C 31  Y   -0.033531   0.053012  -0.008848   0.010440  -0.083838
  124  C 31  Z   -0.006342   0.009620   0.010767  -0.054437   0.027111
  125  C 32  S    0.180696  -0.233982  -0.133204   0.161519   0.033352
  126  C 32  X    0.038507  -0.032361  -0.037098   0.060190  -0.067562
  127  C 32  Y   -0.024916   0.035859  -0.018152  -0.022233  -0.036907
  128  C 32  Z    0.037923  -0.058768  -0.032665  -0.017616   0.068161

                      6          7          8          9         10
                   -1.3790    -1.3501    -1.2476    -1.2346    -1.1141
                     A          A          A          A          A   
    1  C  1  S   -0.207331   0.020185  -0.151730  -0.042830   0.110065
    2  C  1  X    0.072674   0.026306   0.045081  -0.011978   0.070691
    3  C  1  Y   -0.026897  -0.035139  -0.027319   0.043762  -0.127149
    4  C  1  Z    0.004029   0.103580  -0.041985   0.058439   0.064554
    5  C  2  S   -0.252436  -0.188071  -0.128360  -0.082589  -0.205572
    6  C  2  X   -0.011626   0.038223  -0.004511   0.012804   0.044893
    7  C  2  Y    0.040065   0.039653  -0.034459   0.036579   0.015495
    8  C  2  Z   -0.040468   0.038110  -0.105276   0.068204   0.010644
    9  C  3  S   -0.126689   0.238057  -0.086592   0.117809   0.081753
   10  C  3  X    0.021082  -0.027994  -0.011772  -0.073413   0.094661
   11  C  3  Y   -0.051116  -0.086041  -0.055691   0.043385  -0.089619
   12  C  3  Z    0.062623   0.015688   0.084305   0.023394  -0.058053
   13  C  4  S    0.158505  -0.143396  -0.214256  -0.099554   0.172393
   14  C  4  X   -0.091770  -0.041810   0.007941   0.032053  -0.061501
   15  C  4  Y   -0.037289   0.012013   0.012996   0.023350  -0.033028
   16  C  4  Z    0.023804  -0.044795  -0.012699   0.100654   0.027332
   17  C  5  S   -0.111577  -0.155190  -0.228138   0.068440  -0.092141
   18  C  5  X   -0.097922   0.035697  -0.015801   0.034204  -0.099978
   19  C  5  Y    0.032456   0.015873   0.017348  -0.020800   0.031095
   20  C  5  Z    0.021591   0.035846   0.005737   0.103213   0.022892
   21  C  6  S   -0.088249   0.060541  -0.049495   0.260946  -0.109270
   22  C  6  X   -0.058342   0.078094  -0.041932  -0.015087  -0.016543
   23  C  6  Y   -0.010415  -0.071867  -0.072975  -0.033108   0.015115
   24  C  6  Z    0.061691   0.035952   0.106804  -0.007867   0.019817
   25  C  7  S    0.106221   0.085295  -0.018702  -0.259049   0.122965
   26  C  7  X   -0.048849  -0.077620   0.039872  -0.015685   0.014587
   27  C  7  Y    0.016451  -0.073620  -0.076268   0.019944  -0.004383
   28  C  7  Z    0.068287  -0.031399  -0.100517  -0.020123   0.028519
   29  C  8  S    0.092379   0.315700   0.082578  -0.054128   0.076096
   30  C  8  X   -0.025449  -0.029795  -0.064577   0.001150   0.118587
   31  C  8  Y   -0.065778   0.042792  -0.004852   0.077478   0.034624
   32  C  8  Z   -0.018153  -0.036006   0.041359   0.028011  -0.103914
   33  C  9  S    0.209943   0.152102  -0.009874  -0.101732   0.183907
   34  C  9  X   -0.069966  -0.021074  -0.000263   0.013139   0.056510
   35  C  9  Y   -0.043121   0.051129   0.005016  -0.017825   0.125468
   36  C  9  Z   -0.026866   0.073781   0.002708  -0.025471  -0.013500
   37  C 10  S    0.299344   0.001555  -0.112994   0.034665  -0.126066
   38  C 10  X   -0.013493   0.023142   0.068553  -0.041577   0.084358
   39  C 10  Y    0.057470   0.008944   0.030877  -0.009737   0.030933
   40  C 10  Z   -0.000099   0.058477  -0.012383  -0.103802  -0.014608
   41  C 11  S    0.107328   0.162825   0.257142  -0.119903  -0.194299
   42  C 11  X    0.011425   0.086833  -0.043157   0.034739   0.013586
   43  C 11  Y   -0.016089   0.028920   0.052532   0.117777   0.020908
   44  C 11  Z   -0.026404  -0.038508  -0.008916   0.034702   0.024198
   45  C 12  S    0.033341  -0.009649   0.045677  -0.343455  -0.153610
   46  C 12  X    0.082360   0.066330   0.007016   0.025989  -0.091493
   47  C 12  Y    0.017334   0.010164   0.107865  -0.009699  -0.023928
   48  C 12  Z   -0.000713   0.007210   0.084903   0.038580   0.010166
   49  C 13  S    0.125248  -0.016705  -0.230818  -0.119447  -0.163590
   50  C 13  X    0.097125   0.029013   0.040207   0.038712  -0.072492
   51  C 13  Y    0.036104   0.006597  -0.006736  -0.042079  -0.041009
   52  C 13  Z   -0.029836   0.021046   0.064661  -0.140546  -0.016868
   53  C 14  S   -0.185276  -0.138236   0.063761  -0.246841   0.104010
   54  C 14  X    0.050070   0.009009  -0.007167  -0.088401  -0.047370
   55  C 14  Y    0.006859  -0.040825   0.096701   0.024840   0.009723
   56  C 14  Z    0.073592   0.000225   0.066774   0.011915  -0.041378
   57  C 15  S    0.151355  -0.249961   0.195430   0.141011   0.185985
   58  C 15  X   -0.006607   0.027429   0.045655   0.012040  -0.012948
   59  C 15  Y    0.038536   0.013515  -0.085215   0.041288   0.019303
   60  C 15  Z   -0.044404   0.045838   0.030994  -0.024093  -0.039994
   61  C 16  S    0.077146  -0.010469   0.261413   0.164525  -0.041103
   62  C 16  X   -0.031244   0.118599  -0.018650   0.021148  -0.098404
   63  C 16  Y   -0.010359  -0.029601  -0.080946   0.082791   0.041907
   64  C 16  Z   -0.007145   0.009678  -0.000074  -0.042622   0.000468
   65  C 17  S   -0.056033  -0.215370   0.180343   0.005824   0.090900
   66  C 17  X    0.012196  -0.041371   0.067370  -0.041619   0.065115
   67  C 17  Y    0.101221  -0.033508   0.009530   0.080955   0.001479
   68  C 17  Z    0.037468   0.013376   0.015253  -0.015905   0.022012
   69  C 18  S    0.272222  -0.177387  -0.123744   0.061110   0.177781
   70  C 18  X    0.004874  -0.045416   0.004529   0.009918   0.095970
   71  C 18  Y   -0.032300   0.038274  -0.033179  -0.038923   0.008977
   72  C 18  Z   -0.045358  -0.047986   0.095149   0.075530   0.016310
   73  C 19  S   -0.006681  -0.013470   0.010242   0.349729   0.102694
   74  C 19  X    0.085618  -0.063035  -0.003622   0.025632  -0.097748
   75  C 19  Y   -0.021213   0.010344   0.105668   0.020875   0.026007
   76  C 19  Z    0.008013  -0.006786  -0.087749   0.029895   0.001924
   77  C 20  S    0.189129  -0.133786   0.050230   0.251028  -0.090828
   78  C 20  X    0.032473  -0.007045   0.017553  -0.089986  -0.005099
   79  C 20  Y   -0.016320  -0.042417   0.097232  -0.017373  -0.001310
   80  C 20  Z    0.075208   0.004128  -0.065076   0.005586  -0.023256
   81  C 21  S   -0.104352   0.164471   0.236540   0.146990   0.176223
   82  C 21  X    0.018952  -0.085563   0.040231   0.037101  -0.002342
   83  C 21  Y    0.014266   0.034862   0.064836  -0.114435  -0.018508
   84  C 21  Z   -0.025812   0.037005  -0.000179   0.034596   0.025091
   85  C 22  S   -0.090575  -0.022901  -0.245943   0.094142   0.119047
   86  C 22  X    0.104151  -0.023335  -0.039424   0.036278  -0.098359
   87  C 22  Y   -0.032772   0.004944  -0.013350   0.040543   0.039804
   88  C 22  Z   -0.025767  -0.021732  -0.051994  -0.144909  -0.017987
   89  C 23  S    0.012265  -0.027561   0.007550  -0.100636   0.210495
   90  C 23  X   -0.006544   0.040977  -0.021749   0.012064   0.018682
   91  C 23  Y   -0.110841  -0.015363  -0.031063  -0.027501  -0.006987
   92  C 23  Z    0.008803   0.102067  -0.048423  -0.013963   0.127216
   93  C 24  S    0.023168  -0.219187   0.182924   0.003657  -0.090856
   94  C 24  X    0.005213   0.037843  -0.061879  -0.044428   0.066898
   95  C 24  Y   -0.100454  -0.034217   0.008375  -0.083789  -0.035582
   96  C 24  Z    0.024888  -0.018546  -0.010107  -0.017088   0.031583
   97  C 25  S   -0.064356   0.004304   0.267876  -0.142353   0.040520
   98  C 25  X   -0.030143  -0.120155   0.013606   0.015906  -0.097938
   99  C 25  Y    0.014281  -0.026677  -0.072408  -0.087537  -0.024690
  100  C 25  Z   -0.003151  -0.003850   0.006480  -0.043301   0.011314
  101  C 26  S   -0.145843  -0.239945   0.195684  -0.133534  -0.200045
  102  C 26  X   -0.014426  -0.030383  -0.046733   0.008390  -0.029103
  103  C 26  Y   -0.025331   0.016791  -0.080118  -0.045935  -0.006390
  104  C 26  Z   -0.044115  -0.048889  -0.026891  -0.031033  -0.041879
  105  C 27  S   -0.295062  -0.015217  -0.121052  -0.049743   0.183652
  106  C 27  X    0.001618  -0.022644  -0.065155  -0.048269   0.046587
  107  C 27  Y   -0.068082   0.004913   0.028417   0.011433   0.001828
  108  C 27  Z   -0.000411  -0.055283   0.022665  -0.098958  -0.014564
  109  C 28  S   -0.247447   0.129981  -0.024779   0.098328  -0.096962
  110  C 28  X   -0.070650   0.015898  -0.003670   0.011333   0.074276
  111  C 28  Y    0.028223   0.050313   0.006764   0.022552  -0.139037
  112  C 28  Z   -0.030386  -0.074118   0.002051  -0.027082   0.005016
  113  C 29  S   -0.118132   0.310920   0.070131   0.067159  -0.060426
  114  C 29  X   -0.018363   0.029343   0.061828   0.005692   0.119313
  115  C 29  Y    0.068202   0.048732   0.003921  -0.076356  -0.059379
  116  C 29  Z   -0.028745   0.025792  -0.045198   0.023409  -0.089221
  117  C 30  S   -0.059689  -0.022861  -0.000432   0.099343  -0.208211
  118  C 30  X   -0.018802  -0.037930   0.020106   0.016149   0.015228
  119  C 30  Y    0.107401  -0.008943  -0.027396   0.022390  -0.044750
  120  C 30  Z    0.015994  -0.093642   0.044655  -0.012311   0.116637
  121  C 31  S    0.180184   0.032878  -0.141301   0.032638  -0.193662
  122  C 31  X    0.079226  -0.018043  -0.043477  -0.014760   0.046053
  123  C 31  Y    0.042827  -0.031386  -0.022239  -0.045047   0.120701
  124  C 31  Z    0.003900  -0.098631   0.034906   0.053443   0.059480
  125  C 32  S    0.114432   0.246781  -0.072973  -0.111892  -0.129285
  126  C 32  X    0.028059   0.036201   0.018123  -0.070106   0.097021
  127  C 32  Y    0.062766  -0.081056  -0.048336  -0.047447   0.081290
  128  C 32  Z    0.057441  -0.013719  -0.080335   0.017565  -0.076210

                     11         12         13         14         15
                   -1.1102    -1.0762    -1.0460    -1.0151    -0.9609
                     A          A          A          A          A   
    1  C  1  S   -0.256191  -0.010141  -0.173471   0.019952   0.053782
    2  C  1  X    0.028476  -0.013815   0.046895  -0.013572  -0.026434
    3  C  1  Y    0.025190   0.045990  -0.038515   0.036843   0.038875
    4  C  1  Z    0.010045   0.121770   0.006055   0.106746   0.024780
    5  C  2  S   -0.063338   0.062250  -0.122096  -0.149566   0.055547
    6  C  2  X   -0.130190  -0.081017  -0.052711   0.047364  -0.002173
    7  C  2  Y    0.077299   0.048457  -0.028730   0.036760   0.061292
    8  C  2  Z    0.017997   0.030508  -0.119633   0.086616   0.117765
    9  C  3  S   -0.134653   0.153739   0.075773   0.221326  -0.041852
   10  C  3  X   -0.034603   0.018278  -0.040294  -0.076155   0.042726
   11  C  3  Y    0.008800  -0.039298  -0.124478   0.077418   0.027819
   12  C  3  Z    0.064088  -0.025627   0.126598   0.001305  -0.070070
   13  C  4  S    0.221853  -0.040272   0.163114  -0.068278   0.191383
   14  C  4  X    0.136095   0.057556  -0.083044  -0.081753   0.016079
   15  C  4  Y   -0.001774   0.003055  -0.016773  -0.011058   0.015135
   16  C  4  Z   -0.009433  -0.073417  -0.027390  -0.093171   0.028368
   17  C  5  S    0.273917   0.047153  -0.118237  -0.076592   0.196364
   18  C  5  X   -0.101441   0.047334  -0.098548   0.081692  -0.009395
   19  C  5  Y   -0.010527  -0.002386   0.020246  -0.007261   0.013792
   20  C  5  Z    0.003394  -0.083392  -0.029543   0.073899  -0.041053
   21  C  6  S    0.109354  -0.081256  -0.017677   0.194364  -0.124734
   22  C  6  X   -0.093817   0.114311   0.028855   0.115796   0.039812
   23  C  6  Y    0.032917   0.022947  -0.093392  -0.042428   0.093779
   24  C  6  Z   -0.030656  -0.056826   0.096028  -0.004999  -0.119418
   25  C  7  S    0.077547   0.059211   0.021464   0.216548  -0.109200
   26  C  7  X    0.087031   0.127673   0.039331  -0.097520  -0.040667
   27  C  7  Y    0.024565  -0.016723   0.103645  -0.038357   0.089122
   28  C  7  Z    0.017244  -0.057761   0.100299   0.003015   0.115308
   29  C  8  S    0.005195   0.195650   0.257799  -0.132030   0.024133
   30  C  8  X   -0.006097   0.031590  -0.062340   0.015389  -0.030021
   31  C  8  Y   -0.070420  -0.005618   0.070386   0.142162  -0.073993
   32  C  8  Z   -0.022194  -0.053593   0.047773   0.037341   0.002374
   33  C  9  S    0.231795   0.101296  -0.058372  -0.157974  -0.012234
   34  C  9  X   -0.063694  -0.043506   0.015940   0.036706   0.002083
   35  C  9  Y   -0.074965  -0.007919   0.058070  -0.005249   0.019601
   36  C  9  Z   -0.069641   0.117709   0.076649  -0.097625   0.026245
   37  C 10  S    0.225210   0.126889  -0.200524   0.000564  -0.123618
   38  C 10  X    0.101611  -0.050076   0.020199  -0.019852   0.051026
   39  C 10  Y    0.091969  -0.020735   0.000237   0.006694   0.041246
   40  C 10  Z   -0.012162   0.064063  -0.024406  -0.157078  -0.023956
   41  C 11  S   -0.046014  -0.066749   0.142228  -0.118407   0.194400
   42  C 11  X    0.031650   0.100922   0.127573  -0.040267  -0.060238
   43  C 11  Y    0.015503  -0.052694   0.077648   0.075812  -0.157394
   44  C 11  Z   -0.001921  -0.023541  -0.018491   0.041391  -0.029942
   45  C 12  S   -0.128931  -0.076086  -0.089116  -0.027564   0.255641
   46  C 12  X    0.015855   0.053404   0.012064  -0.148349   0.006353
   47  C 12  Y    0.005855  -0.021360  -0.002018  -0.006504   0.129047
   48  C 12  Z    0.024995  -0.009197   0.009158   0.009227   0.098193
   49  C 13  S   -0.110583   0.072951  -0.130873  -0.070083  -0.205775
   50  C 13  X    0.102860   0.093281  -0.079950  -0.046561   0.032436
   51  C 13  Y   -0.001037   0.011712  -0.026085  -0.025558   0.041242
   52  C 13  Z    0.002005  -0.042068   0.004803  -0.044699   0.118086
   53  C 14  S    0.048593  -0.008863  -0.028614   0.276908   0.144927
   54  C 14  X   -0.120707  -0.092613  -0.050350  -0.040702   0.066561
   55  C 14  Y    0.024825   0.069950  -0.076675   0.039060   0.070554
   56  C 14  Z   -0.041513   0.022622  -0.085964  -0.001040   0.088898
   57  C 15  S   -0.104080  -0.034716  -0.230599  -0.145892  -0.170307
   58  C 15  X    0.074943  -0.171576  -0.018610  -0.001914  -0.042666
   59  C 15  Y    0.012632  -0.057381   0.070655  -0.090684  -0.047727
   60  C 15  Z    0.020386  -0.024016  -0.023020   0.046409  -0.001105
   61  C 16  S    0.031929  -0.267449  -0.028216  -0.008080  -0.211341
   62  C 16  X    0.021495   0.018680   0.162106   0.084502  -0.004337
   63  C 16  Y    0.056991  -0.015312  -0.021233   0.006529  -0.115949
   64  C 16  Z   -0.029848   0.029888   0.006858   0.003564   0.029680
   65  C 17  S    0.014022   0.259987  -0.147904   0.150619   0.032515
   66  C 17  X   -0.030218  -0.075323  -0.092503   0.030710   0.039099
   67  C 17  Y   -0.121198   0.031253  -0.053330  -0.134683  -0.089336
   68  C 17  Z   -0.042872  -0.065407  -0.048811  -0.010164   0.008882
   69  C 18  S   -0.148835  -0.036085   0.119867  -0.144673   0.033938
   70  C 18  X    0.118307  -0.074805  -0.037357  -0.058438   0.001719
   71  C 18  Y    0.075516  -0.057160   0.045267   0.028224   0.061985
   72  C 18  Z   -0.006609   0.045975  -0.123978  -0.089430  -0.109899
   73  C 19  S   -0.174831   0.079054   0.081732  -0.020802   0.263890
   74  C 19  X    0.017368   0.044838   0.013765   0.154095  -0.001539
   75  C 19  Y   -0.003383   0.021055   0.006968  -0.007351   0.124271
   76  C 19  Z   -0.026457  -0.007760   0.000479  -0.011969  -0.092377
   77  C 20  S    0.084388  -0.015056   0.048364   0.273998   0.147670
   78  C 20  X    0.130274  -0.099773  -0.036137   0.029472  -0.073824
   79  C 20  Y    0.015623  -0.076643   0.081755   0.029035   0.059399
   80  C 20  Z    0.063598   0.023309  -0.085787   0.001725  -0.084555
   81  C 21  S   -0.090108   0.069435  -0.142847  -0.111443   0.185610
   82  C 21  X   -0.048061   0.103285   0.124412   0.047111   0.053839
   83  C 21  Y    0.030531   0.047471  -0.081370   0.084687  -0.161248
   84  C 21  Z   -0.001576  -0.025397  -0.019219  -0.043470   0.029652
   85  C 22  S   -0.167057  -0.068209   0.110374  -0.075119  -0.206698
   86  C 22  X   -0.065097   0.088958  -0.088385   0.050751  -0.024864
   87  C 22  Y   -0.016503  -0.011493   0.025313  -0.027529   0.040609
   88  C 22  Z    0.000527  -0.044424   0.003311   0.043016  -0.126420
   89  C 23  S   -0.015479  -0.225542  -0.064974  -0.025476  -0.023867
   90  C 23  X   -0.014108   0.069291  -0.008160  -0.013304   0.002940
   91  C 23  Y   -0.176664  -0.008578  -0.012533  -0.046170  -0.004845
   92  C 23  Z   -0.006887   0.118528  -0.033265  -0.039226   0.011345
   93  C 24  S    0.015924  -0.268813   0.158604   0.113395   0.014604
   94  C 24  X    0.018539  -0.077873  -0.090523  -0.028605  -0.031211
   95  C 24  Y   -0.120436  -0.009914   0.028041  -0.143599  -0.093544
   96  C 24  Z    0.035489  -0.077078  -0.043720   0.011200  -0.005185
   97  C 25  S    0.011334   0.271956   0.022629   0.021579  -0.221645
   98  C 25  X   -0.011815   0.032520   0.159422  -0.089791  -0.007130
   99  C 25  Y    0.064670   0.013731   0.025466   0.011842  -0.101633
  100  C 25  Z    0.026927   0.031223   0.003830   0.003277  -0.026751
  101  C 26  S   -0.073575   0.065657   0.211333  -0.151943  -0.183661
  102  C 26  X   -0.060182  -0.166674  -0.025418  -0.016238   0.047692
  103  C 26  Y    0.026892   0.061929  -0.067666  -0.071763  -0.031478
  104  C 26  Z   -0.007625  -0.017217  -0.022506  -0.050156   0.004687
  105  C 27  S    0.146178  -0.124666   0.217725  -0.003114  -0.129959
  106  C 27  X   -0.122161  -0.051105   0.006533   0.017175  -0.057988
  107  C 27  Y    0.095518   0.019604   0.010516   0.010010   0.045376
  108  C 27  Z    0.017596   0.053147  -0.020387   0.159477   0.023275
  109  C 28  S    0.271598  -0.079617   0.087069  -0.165711  -0.009612
  110  C 28  X    0.041178  -0.040876   0.021908  -0.035925  -0.002067
  111  C 28  Y   -0.021269   0.012384  -0.063308  -0.013113   0.018645
  112  C 28  Z    0.058801   0.113800   0.076322   0.109799  -0.022956
  113  C 29  S    0.058312  -0.193604  -0.248167  -0.151468   0.027575
  114  C 29  X   -0.026136   0.029925  -0.062375  -0.004893   0.028820
  115  C 29  Y   -0.050337  -0.007500  -0.079247   0.144464  -0.069221
  116  C 29  Z    0.049494  -0.043776   0.056740  -0.042614  -0.002675
  117  C 30  S    0.049377   0.221369   0.059404  -0.016543  -0.024866
  118  C 30  X    0.015270   0.071370  -0.004424   0.017229  -0.002634
  119  C 30  Y   -0.165548   0.011611  -0.010252  -0.041752  -0.011132
  120  C 30  Z   -0.029507   0.107023  -0.027584   0.054961  -0.008662
  121  C 31  S   -0.229049   0.010560   0.140816   0.012825   0.037648
  122  C 31  X   -0.063260  -0.014996   0.046033   0.017683   0.022688
  123  C 31  Y   -0.023399  -0.046068   0.044424   0.038616   0.035819
  124  C 31  Z   -0.030988   0.130188   0.003436  -0.082488  -0.029216
  125  C 32  S   -0.091944  -0.180988  -0.085725   0.197023  -0.029454
  126  C 32  X    0.011476   0.002837  -0.042426   0.083979  -0.035178
  127  C 32  Y   -0.031299   0.034469   0.124743   0.081522   0.029008
  128  C 32  Z   -0.058972  -0.023571   0.115761  -0.012172   0.061539

                     16         17         18         19         20
                   -0.9430    -0.8877    -0.8804    -0.8629    -0.8441
                     A          A          A          A          A   
    1  C  1  S   -0.145564  -0.028621   0.181028   0.014150  -0.170291
    2  C  1  X   -0.000631  -0.132256   0.026455   0.029193   0.000217
    3  C  1  Y    0.034920   0.182891  -0.040811  -0.069888   0.002099
    4  C  1  Z    0.094648  -0.072907   0.028837  -0.158185   0.020750
    5  C  2  S   -0.144327   0.204639  -0.177326  -0.068225  -0.005588
    6  C  2  X   -0.042905   0.079232   0.154444   0.050218  -0.094143
    7  C  2  Y    0.047448  -0.029181  -0.066735   0.000638   0.021236
    8  C  2  Z    0.064900   0.028670  -0.018988   0.023873  -0.031486
    9  C  3  S    0.069640  -0.003646   0.144406  -0.138264   0.110546
   10  C  3  X   -0.062289  -0.120034   0.032733  -0.077269  -0.023798
   11  C  3  Y    0.067985   0.109128   0.015564   0.040364  -0.131237
   12  C  3  Z    0.015316   0.047373  -0.046350   0.063632   0.113605
   13  C  4  S   -0.106214  -0.117408   0.167370   0.065968   0.098854
   14  C  4  X    0.032651  -0.185840  -0.115147   0.078498   0.137219
   15  C  4  Y    0.021044  -0.020046  -0.025605   0.002507   0.014924
   16  C  4  Z    0.143756  -0.003874   0.119941  -0.063578   0.012298
   17  C  5  S    0.107139  -0.116174  -0.157625   0.066119   0.125632
   18  C  5  X    0.043552   0.188586  -0.109074  -0.066486  -0.092027
   19  C  5  Y   -0.017010  -0.022966   0.025109   0.008261   0.021970
   20  C  5  Z    0.141052  -0.018731   0.112072   0.030742  -0.082749
   21  C  6  S    0.218075   0.021383   0.012843   0.100504  -0.090118
   22  C  6  X    0.017422   0.138757   0.027633  -0.045529   0.088136
   23  C  6  Y    0.054538  -0.026882  -0.011296  -0.028974   0.002353
   24  C  6  Z   -0.075804  -0.015285   0.028982   0.033026  -0.033784
   25  C  7  S   -0.216546   0.030417  -0.009619   0.128138  -0.005366
   26  C  7  X    0.011074  -0.127907   0.008146   0.077007  -0.011744
   27  C  7  Y   -0.054955  -0.019537   0.001931  -0.025311  -0.016324
   28  C  7  Z   -0.072368   0.019689   0.033728  -0.033687  -0.000856
   29  C  8  S   -0.034377   0.020405  -0.043027  -0.104417   0.253660
   30  C  8  X    0.038093  -0.135154  -0.005539  -0.128006  -0.023475
   31  C  8  Y   -0.012542  -0.060700   0.063649  -0.003809   0.098620
   32  C  8  Z   -0.039985   0.089556   0.034798   0.109157   0.050859
   33  C  9  S    0.110741  -0.011411  -0.239549  -0.101441  -0.134337
   34  C  9  X   -0.014094  -0.125593  -0.005749   0.036408   0.012465
   35  C  9  Y   -0.028130  -0.192443  -0.008772   0.006137   0.073028
   36  C  9  Z   -0.037772  -0.000856   0.062580  -0.124332   0.085897
   37  C 10  S   -0.040155   0.198910   0.059526  -0.073001  -0.147340
   38  C 10  X    0.120320   0.059475  -0.184841  -0.010161  -0.061717
   39  C 10  Y    0.067676   0.039373  -0.109119  -0.016130  -0.022635
   40  C 10  Z    0.064520   0.048997   0.056904  -0.007083  -0.072617
   41  C 11  S   -0.172641   0.099692  -0.035512   0.166607  -0.009077
   42  C 11  X    0.031945   0.099545   0.018348   0.020857   0.166086
   43  C 11  Y   -0.078453   0.001765  -0.074750   0.026529  -0.006570
   44  C 11  Z   -0.021341  -0.020312  -0.021745  -0.008364  -0.025255
   45  C 12  S    0.169504  -0.105327   0.104286   0.038413  -0.028316
   46  C 12  X   -0.060019   0.091091   0.110189   0.098554  -0.021853
   47  C 12  Y   -0.120414   0.025187  -0.060703   0.000846  -0.049582
   48  C 12  Z   -0.094842   0.024048  -0.062438  -0.013855  -0.035725
   49  C 13  S    0.052696  -0.060088   0.240759   0.067176   0.045081
   50  C 13  X   -0.090839   0.134078   0.126994  -0.046379  -0.117318
   51  C 13  Y    0.025633   0.013701   0.044745   0.003064  -0.026795
   52  C 13  Z    0.182787   0.004919   0.047037   0.013638  -0.027104
   53  C 14  S    0.065242  -0.025067  -0.046616  -0.137506  -0.017684
   54  C 14  X    0.114249  -0.111485  -0.047461  -0.019178   0.026666
   55  C 14  Y   -0.140254   0.021292  -0.004033  -0.025142   0.027296
   56  C 14  Z   -0.060437  -0.048594  -0.011053  -0.011936   0.027428
   57  C 15  S   -0.040556   0.010115  -0.012414  -0.200852   0.096000
   58  C 15  X   -0.084190  -0.126757   0.014576  -0.100833  -0.201724
   59  C 15  Y    0.119638   0.006107   0.132230   0.006336  -0.046717
   60  C 15  Z   -0.072398  -0.046997  -0.069287  -0.020017  -0.051762
   61  C 16  S   -0.146736  -0.098651  -0.067988   0.007775  -0.241469
   62  C 16  X    0.041422   0.072945  -0.000934   0.201352   0.020433
   63  C 16  Y    0.132587  -0.045191   0.068081  -0.020163  -0.023261
   64  C 16  Z   -0.042622   0.019440  -0.021571  -0.008978   0.014499
   65  C 17  S   -0.127020   0.059301  -0.053566   0.064009   0.172033
   66  C 17  X   -0.050563   0.005071  -0.066624  -0.207350   0.029050
   67  C 17  Y    0.057127   0.017048  -0.062036   0.050967   0.118211
   68  C 17  Z   -0.015143  -0.003351  -0.056672  -0.097957   0.024999
   69  C 18  S    0.160017   0.191142   0.180480  -0.065653  -0.020787
   70  C 18  X   -0.051023  -0.085276   0.172064  -0.072634   0.078649
   71  C 18  Y   -0.042238  -0.026149   0.069746  -0.019853  -0.046659
   72  C 18  Z    0.057033  -0.028886  -0.007015  -0.005084   0.117299
   73  C 19  S   -0.159894  -0.088721  -0.104265   0.025588  -0.088454
   74  C 19  X   -0.065729  -0.097135   0.104679  -0.109636   0.046253
   75  C 19  Y    0.133758   0.010300   0.054811  -0.009858  -0.083636
   76  C 19  Z   -0.103615  -0.007740  -0.056930   0.024790   0.056848
   77  C 20  S   -0.050218  -0.030635   0.041078  -0.117832   0.099027
   78  C 20  X    0.121148   0.106250  -0.044244   0.050687   0.058805
   79  C 20  Y    0.146919   0.002313   0.006720  -0.012159   0.072082
   80  C 20  Z   -0.064301   0.059243  -0.015098   0.020800  -0.040848
   81  C 21  S    0.191929   0.084827   0.045733   0.146964  -0.099664
   82  C 21  X    0.033695  -0.107451  -0.009607  -0.029786  -0.192232
   83  C 21  Y    0.069271  -0.010998   0.073669   0.025030   0.025268
   84  C 21  Z   -0.024507   0.029503  -0.016330   0.012048   0.033774
   85  C 22  S   -0.074439  -0.040031  -0.234361   0.090753   0.103821
   86  C 22  X   -0.105447  -0.129626   0.124776   0.028396   0.049191
   87  C 22  Y   -0.019881   0.020598  -0.043775   0.004826  -0.023969
   88  C 22  Z    0.169537  -0.026333   0.044466  -0.014352   0.054619
   89  C 23  S   -0.026546  -0.176130  -0.026580   0.281176  -0.068732
   90  C 23  X   -0.016399  -0.056044   0.005359  -0.043049  -0.051077
   91  C 23  Y   -0.137455  -0.028225   0.179384   0.028467  -0.032434
   92  C 23  Z   -0.011608  -0.144058  -0.042830  -0.121968  -0.112313
   93  C 24  S    0.127549   0.041578   0.086410   0.061462   0.228675
   94  C 24  X   -0.051718   0.013871  -0.050028   0.211235  -0.021126
   95  C 24  Y   -0.075229   0.024011   0.068589   0.008897  -0.029561
   96  C 24  Z   -0.014726   0.012430  -0.044657   0.118406  -0.001903
   97  C 25  S    0.135598  -0.105860   0.026778   0.019670  -0.190720
   98  C 25  X    0.031151  -0.064972  -0.025838  -0.206833  -0.055909
   99  C 25  Y   -0.139792  -0.025287  -0.072026   0.005931   0.058706
  100  C 25  Z   -0.043216  -0.010574  -0.018307   0.028332   0.014802
  101  C 26  S    0.022209   0.011897   0.002966  -0.225621   0.001413
  102  C 26  X   -0.078199   0.118658   0.051551   0.075268   0.131478
  103  C 26  Y   -0.114180   0.024545  -0.124406   0.021713  -0.036396
  104  C 26  Z   -0.071656   0.055604  -0.055692   0.019834   0.035012
  105  C 27  S    0.053356   0.190956  -0.070930  -0.064529  -0.090991
  106  C 27  X    0.105858  -0.057018  -0.173683   0.022817   0.091818
  107  C 27  Y   -0.057704   0.041686   0.103012  -0.030285  -0.054746
  108  C 27  Z    0.059275  -0.056792   0.055948  -0.018073  -0.019128
  109  C 28  S   -0.105031  -0.016910   0.220950  -0.088496  -0.081480
  110  C 28  X   -0.005816   0.127391  -0.001511  -0.034225   0.003691
  111  C 28  Y    0.009022  -0.190433   0.009836   0.010152   0.063595
  112  C 28  Z   -0.032392  -0.005862   0.053994   0.109833  -0.123088
  113  C 29  S    0.026106   0.021230   0.067652  -0.106646   0.257374
  114  C 29  X    0.047670   0.135710   0.009671   0.126043   0.000759
  115  C 29  Y   -0.000313  -0.065136  -0.061787  -0.020709   0.072715
  116  C 29  Z   -0.047186  -0.084334   0.018035  -0.098180  -0.025647
  117  C 30  S    0.011835  -0.189347   0.029921   0.282702  -0.051418
  118  C 30  X   -0.016199   0.048896   0.026166   0.048513   0.038719
  119  C 30  Y    0.124022  -0.023587  -0.177313   0.048431   0.029058
  120  C 30  Z   -0.002722   0.140270  -0.016574   0.117845   0.082653
  121  C 31  S    0.148566  -0.031039  -0.213288   0.021936  -0.190256
  122  C 31  X    0.014463   0.127644   0.019137  -0.034001  -0.024243
  123  C 31  Y   -0.014901   0.180433   0.037413  -0.073442  -0.052709
  124  C 31  Z    0.089877   0.067408   0.040044   0.184009   0.049989
  125  C 32  S   -0.073552  -0.002469  -0.142542  -0.168845   0.045051
  126  C 32  X   -0.059183   0.118613   0.053502   0.071957   0.051289
  127  C 32  Y   -0.051641   0.109716  -0.019567   0.041900  -0.157728
  128  C 32  Z    0.024369  -0.039458  -0.068252  -0.067233  -0.141438

                     21         22         23         24         25
                   -0.8351    -0.7921    -0.7755    -0.7465    -0.7356
                     A          A          A          A          A   
    1  C  1  S   -0.112140  -0.085062  -0.062486  -0.031084  -0.122701
    2  C  1  X    0.014500   0.041111   0.002310   0.073975  -0.045779
    3  C  1  Y   -0.056544  -0.049938   0.019119  -0.096932   0.022702
    4  C  1  Z   -0.162229   0.037647   0.107040   0.023205  -0.091581
    5  C  2  S    0.021100  -0.049303  -0.190568  -0.193490   0.102845
    6  C  2  X    0.012739  -0.078038   0.011119  -0.022230  -0.004026
    7  C  2  Y   -0.075128  -0.035309   0.008054  -0.004498  -0.075606
[...]
   35  C  9  Y   -0.134050  -0.044359   0.198269   0.049155  -0.000848
   36  C  9  Z    0.082401  -0.000161  -0.082116   0.007709   0.013541
   37  C 10  S    0.020214  -0.038305   0.077322   0.075043   0.058946
   38  C 10  X    0.019039  -0.132368   0.154098   0.104672   0.027080
   39  C 10  Y   -0.058618   0.269373  -0.152731  -0.153318  -0.038042
   40  C 10  Z   -0.017665  -0.003014  -0.015722  -0.044440  -0.046847
   41  C 11  S    0.000748  -0.014958   0.058815   0.042193   0.047087
   42  C 11  X    0.028065  -0.041630   0.000158   0.016460   0.014900
   43  C 11  Y   -0.001263   0.024717  -0.079896  -0.067495  -0.002256
   44  C 11  Z   -0.024682  -0.091417   0.329350   0.127796   0.097981
   45  C 12  S    0.014151   0.002781  -0.064151  -0.064691  -0.005417
   46  C 12  X    0.029772  -0.016246  -0.092366  -0.005166  -0.026952
   47  C 12  Y   -0.013675   0.006164   0.219339   0.118898  -0.002960
   48  C 12  Z   -0.007299   0.027737  -0.278047  -0.171089  -0.052136
   49  C 13  S   -0.042140   0.035845   0.022459   0.001360  -0.024650
   50  C 13  X   -0.031475   0.065979  -0.019026  -0.046667  -0.014830
   51  C 13  Y    0.150169  -0.266850  -0.050573   0.049009  -0.001595
   52  C 13  Z   -0.042348   0.081494   0.085744   0.009061   0.026351
   53  C 14  S    0.023290  -0.015727  -0.067847   0.044785  -0.052825
   54  C 14  X   -0.055102   0.060286   0.086418  -0.033612   0.048717
   55  C 14  Y   -0.103948   0.096588   0.046725  -0.118778   0.029152
   56  C 14  Z    0.123254  -0.161119  -0.061264   0.081961  -0.061916
   57  C 15  S   -0.016834   0.021477  -0.048690  -0.071875  -0.099203
   58  C 15  X    0.049571  -0.024753   0.077888   0.079567   0.092016
   59  C 15  Y   -0.115794   0.050622  -0.013916  -0.123217  -0.090032
   60  C 15  Z   -0.224685   0.044948  -0.151767  -0.250239  -0.055318
   61  C 16  S    0.022085  -0.004673  -0.021632   0.021053  -0.054767
   62  C 16  X    0.005126   0.011458  -0.032049  -0.045595  -0.080065
   63  C 16  Y    0.070920  -0.026053   0.039845   0.061122  -0.046810
   64  C 16  Z    0.251411  -0.101733  -0.049726   0.174680  -0.028440
   65  C 17  S   -0.020815  -0.000664   0.101256   0.025404   0.069939
   66  C 17  X    0.053465  -0.067839  -0.131538  -0.035359  -0.030869
   67  C 17  Y    0.020562  -0.025619  -0.009428   0.030639   0.003698
   68  C 17  Z   -0.070160   0.180868   0.249144   0.069139   0.117613
   69  C 18  S   -0.028185  -0.017216  -0.012951   0.036719   0.145779
   70  C 18  X    0.092338   0.012890   0.033234  -0.045298  -0.028834
   71  C 18  Y   -0.162286  -0.110552  -0.028036   0.029632   0.188142
   72  C 18  Z   -0.073493  -0.057799   0.015703   0.073230   0.104787
   73  C 19  S   -0.012185  -0.007943  -0.013362   0.084720  -0.021936
   74  C 19  X    0.005218   0.030976   0.031299   0.001463   0.061097
   75  C 19  Y    0.016396   0.026413   0.163257  -0.158935  -0.005467
   76  C 19  Z    0.009739  -0.008527   0.220554  -0.198348   0.053690
   77  C 20  S   -0.008819  -0.027050  -0.020855  -0.064527  -0.096035
   78  C 20  X   -0.030536  -0.096577  -0.021738  -0.043089  -0.097057
   79  C 20  Y    0.069074   0.170457  -0.010335   0.172121   0.093076
   80  C 20  Z    0.064906   0.242700  -0.048452   0.108016   0.140316
   81  C 21  S    0.008068  -0.002538  -0.000813  -0.025028   0.086509
   82  C 21  X   -0.019187   0.023909  -0.013505  -0.002705  -0.010920
   83  C 21  Y   -0.029698  -0.006302  -0.064911   0.082803   0.002259
   84  C 21  Z   -0.085119  -0.028865  -0.158038   0.093017  -0.196002
   85  C 22  S    0.009168   0.045417  -0.020264  -0.023182  -0.003079
   86  C 22  X    0.017347  -0.059868   0.007120  -0.022980   0.014081
   87  C 22  Y    0.007461  -0.284831  -0.001577   0.009867   0.000102
   88  C 22  Z    0.008276  -0.107106  -0.055843   0.029679  -0.034682
   89  C 23  S    0.040460   0.049050   0.010894   0.012484   0.000012
   90  C 23  X    0.255344   0.222083   0.005317   0.015195   0.032858
   91  C 23  Y   -0.016995  -0.004262  -0.049613  -0.017292   0.031737
   92  C 23  Z   -0.117874  -0.043821   0.021816  -0.023144   0.011307
   93  C 24  S    0.000056   0.020327   0.011132  -0.031746   0.117809
   94  C 24  X   -0.014153   0.118376   0.025289  -0.045072   0.076734
   95  C 24  Y   -0.015869  -0.059947  -0.002308  -0.047101  -0.018874
   96  C 24  Z   -0.004000  -0.253695  -0.071931   0.089981  -0.201103
   97  C 25  S    0.012999  -0.004884   0.024537  -0.042452  -0.109251
   98  C 25  X   -0.002174  -0.012417  -0.011895  -0.057848   0.114969
   99  C 25  Y    0.043734  -0.000993   0.065004  -0.053614  -0.090122
  100  C 25  Z   -0.140720   0.086444  -0.137954   0.233233   0.230545
  101  C 26  S   -0.007728   0.020682  -0.009591   0.108465  -0.108100
  102  C 26  X   -0.017277   0.031336  -0.025432   0.114446  -0.131121
  103  C 26  Y   -0.017147   0.090167  -0.022866   0.171580  -0.072930
  104  C 26  Z    0.090746  -0.095452   0.124702  -0.356149   0.061079
  105  C 27  S    0.006056  -0.033515   0.069281  -0.044625   0.042064
  106  C 27  X   -0.042403   0.105363  -0.105936   0.063368  -0.021277
  107  C 27  Y   -0.072989   0.241101  -0.118848   0.069567  -0.017287
  108  C 27  Z   -0.007854   0.006774   0.042611  -0.027684   0.017387
  109  C 28  S   -0.010070  -0.035286  -0.044560   0.054522  -0.021035
  110  C 28  X    0.113842   0.152006   0.117958  -0.032087   0.013253
  111  C 28  Y    0.080256   0.054986   0.117265  -0.038361   0.014371
  112  C 28  Z    0.018701   0.036912   0.069167  -0.020882  -0.004321
  113  C 29  S   -0.007544   0.023436   0.050139  -0.048686   0.002854
  114  C 29  X    0.090386  -0.062529  -0.094025   0.021604  -0.000349
  115  C 29  Y    0.041154  -0.045755  -0.027862  -0.016468   0.020586
  116  C 29  Z    0.138138  -0.063963  -0.064489  -0.026005   0.021364
  117  C 30  S    0.005140   0.049777  -0.041923  -0.009255   0.014357
  118  C 30  X   -0.076670  -0.183486   0.044375   0.010051  -0.024719
  119  C 30  Y   -0.056131  -0.019726  -0.017928   0.026358   0.024121
  120  C 30  Z    0.041628   0.036445  -0.054281  -0.017445  -0.007516
  121  C 31  S    0.062168  -0.021640   0.057183  -0.049974  -0.055051
  122  C 31  X   -0.224904   0.061146  -0.096562   0.067505   0.106921
  123  C 31  Y    0.190495  -0.018002   0.065327  -0.067571  -0.089111
  124  C 31  Z    0.053012  -0.004464   0.008348  -0.011293  -0.046294
  125  C 32  S   -0.000739   0.016941  -0.056433   0.066222  -0.024416
  126  C 32  X   -0.024680  -0.023947   0.090363  -0.052784   0.044445
  127  C 32  Y    0.002573   0.032502  -0.023600   0.052607  -0.039313
  128  C 32  Z   -0.069566  -0.026972   0.039842  -0.036008   0.093825

                     71         72         73         74
                   -0.0483    -0.0439    -0.0393    -0.0367
                     A          A          A          A   
    1  C  1  S    0.073741  -0.058464   0.236613   0.101338
    2  C  1  X    0.140223  -0.098412   0.220651   0.087056
    3  C  1  Y    0.041270  -0.056775   0.154480   0.051295
    4  C  1  Z   -0.061527   0.047795   0.038368  -0.036254
    5  C  2  S   -0.013532   0.052286  -0.097369  -0.075184
    6  C  2  X   -0.019414   0.049311  -0.122169  -0.061913
    7  C  2  Y    0.047848   0.064787  -0.022028  -0.088486
    8  C  2  Z   -0.032362  -0.026818  -0.009607   0.030270
    9  C  3  S    0.024483  -0.031872  -0.264881  -0.038180
   10  C  3  X    0.060870  -0.032584  -0.262998  -0.013807
   11  C  3  Y    0.061243   0.021529  -0.145461   0.004047
   12  C  3  Z    0.124750  -0.066558  -0.181597   0.041317
   13  C  4  S    0.032972   0.033524  -0.050800   0.020727
   14  C  4  X   -0.066250  -0.001103   0.051568  -0.022080
   15  C  4  Y    0.179447  -0.037253  -0.065717  -0.006254
   16  C  4  Z    0.056820   0.049501  -0.042373  -0.055957
   17  C  5  S    0.021711  -0.034027  -0.016526   0.027017
   18  C  5  X    0.007768  -0.003863  -0.020910   0.044814
   19  C  5  Y   -0.124854  -0.001683   0.003573   0.096340
   20  C  5  Z    0.058783   0.029366  -0.089652  -0.005602
   21  C  6  S   -0.075836  -0.006692   0.164591   0.003495
   22  C  6  X   -0.006668   0.024995   0.089233   0.003978
   23  C  6  Y   -0.156785  -0.033384   0.160660  -0.028511
   24  C  6  Z   -0.148567  -0.037286   0.149369  -0.012630
   25  C  7  S    0.039176   0.025710  -0.011766  -0.131132
   26  C  7  X   -0.032771  -0.005328   0.005495   0.109817
   27  C  7  Y    0.015058   0.078359  -0.002611  -0.068760
   28  C  7  Z   -0.061731  -0.074017   0.023072   0.087034
   29  C  8  S   -0.032051   0.156850   0.165234  -0.011318
   30  C  8  X   -0.007009   0.214246   0.157131  -0.016926
   31  C  8  Y   -0.013994  -0.117563   0.061118   0.029900
   32  C  8  Z    0.022297   0.231432   0.201966  -0.001191
   33  C  9  S    0.067721  -0.150151   0.006152   0.063138
   34  C  9  X    0.072542  -0.217705   0.022424   0.049583
   35  C  9  Y    0.035194   0.056751  -0.011247   0.023780
   36  C  9  Z   -0.038738  -0.087013  -0.109676  -0.027979
   37  C 10  S    0.014892  -0.001825  -0.078781   0.002400
   38  C 10  X    0.016274   0.019100  -0.050366   0.004519
   39  C 10  Y   -0.056122   0.134167   0.157403  -0.027972
   40  C 10  Z   -0.059231   0.003421   0.034768  -0.034549
   41  C 11  S   -0.041783  -0.067172  -0.077683   0.004666
   42  C 11  X    0.019308  -0.125138  -0.095719   0.012301
   43  C 11  Y   -0.004083  -0.030795   0.008755   0.012608
   44  C 11  Z   -0.133613  -0.176570  -0.152952   0.009462
   45  C 12  S    0.019512  -0.084321  -0.032868   0.018045
   46  C 12  X    0.054993  -0.008914   0.034618  -0.013162
   47  C 12  Y    0.022491   0.163878   0.075653  -0.031877
   48  C 12  Z   -0.036225  -0.060490   0.005670   0.051492
   49  C 13  S   -0.030601   0.114717   0.077213   0.021948
   50  C 13  X    0.011055   0.008329   0.054203  -0.017388
   51  C 13  Y    0.014157  -0.298739  -0.119449  -0.046804
   52  C 13  Z   -0.008348   0.087209   0.031384  -0.003910
   53  C 14  S    0.082451   0.075682   0.079167  -0.065610
   54  C 14  X   -0.080101  -0.066526  -0.071395   0.052290
   55  C 14  Y   -0.090775  -0.120983  -0.099391   0.114022
   56  C 14  Z    0.141221   0.129210   0.106630  -0.056141
   57  C 15  S    0.083372  -0.010748  -0.020756  -0.015366
   58  C 15  X   -0.070325  -0.045307   0.016071   0.007342
   59  C 15  Y   -0.015399   0.010931  -0.120084   0.034812
   60  C 15  Z   -0.054134  -0.016731  -0.031649   0.088612
   61  C 16  S    0.052708   0.063192  -0.021198  -0.014243
   62  C 16  X    0.071894   0.019859  -0.037899  -0.010574
   63  C 16  Y    0.065827   0.028590  -0.054419  -0.013009
   64  C 16  Z    0.232216   0.135958   0.084304  -0.083982
   65  C 17  S   -0.121684  -0.000832  -0.097920   0.014308
   66  C 17  X    0.102495  -0.024261   0.082190   0.027492
   67  C 17  Y    0.013012   0.043587   0.034292  -0.034128
   68  C 17  Z   -0.159293  -0.136556  -0.080355   0.014642
   69  C 18  S   -0.106756  -0.068624   0.121390   0.064772
   70  C 18  X    0.069439   0.069067  -0.060779  -0.063437
   71  C 18  Y   -0.186021  -0.087741   0.151366  -0.012916
   72  C 18  Z   -0.102792  -0.039185   0.081433  -0.023274
   73  C 19  S   -0.046493   0.060075  -0.020249   0.037829
   74  C 19  X    0.086655  -0.020256   0.006120   0.028257
   75  C 19  Y    0.103609  -0.098370   0.049256  -0.078649
   76  C 19  Z    0.098538  -0.027283   0.028163   0.058444
   77  C 20  S   -0.083198  -0.019172   0.037435  -0.077342
   78  C 20  X   -0.083340  -0.021351   0.038170  -0.078455
   79  C 20  Y    0.067858   0.035463  -0.102966   0.077268
   80  C 20  Z    0.103081   0.058776  -0.059682   0.116064
   81  C 21  S    0.050764   0.032995  -0.015635   0.117302
   82  C 21  X    0.026016  -0.077769   0.034595  -0.141169
   83  C 21  Y   -0.039571   0.030803  -0.002427  -0.016397
   84  C 21  Z   -0.254047  -0.066711   0.053357  -0.193483
   85  C 22  S    0.048983  -0.079499   0.016343  -0.120127
   86  C 22  X    0.004190  -0.031255  -0.028258   0.056303
   87  C 22  Y   -0.026542   0.222279  -0.042889   0.190719
   88  C 22  Z   -0.048817   0.078126  -0.024478   0.059452
   89  C 23  S   -0.140408   0.109655  -0.137637  -0.125144
   90  C 23  X   -0.245664   0.130439  -0.174048  -0.112625
   91  C 23  Y    0.051029  -0.042674  -0.037533   0.022089
   92  C 23  Z    0.114271  -0.001065   0.050117   0.063320
   93  C 24  S    0.138063  -0.022997   0.028943   0.128054
   94  C 24  X    0.158604  -0.015408   0.058046   0.106807
   95  C 24  Y   -0.022944  -0.019433   0.038958  -0.031465
   96  C 24  Z   -0.189237  -0.091891   0.032262  -0.138840
   97  C 25  S   -0.058110  -0.044701   0.019797   0.005133
   98  C 25  X    0.045973   0.018053  -0.016053  -0.005913
   99  C 25  Y   -0.009785  -0.024642   0.015098   0.070127
  100  C 25  Z    0.204400   0.071054  -0.089954   0.034712
  101  C 26  S   -0.034189   0.009407   0.007909  -0.019296
  102  C 26  X   -0.063390  -0.036651   0.011942  -0.034181
  103  C 26  Y    0.061623  -0.040777   0.005387   0.073706
  104  C 26  Z    0.001692   0.026174   0.058031   0.040180
  105  C 27  S   -0.005872  -0.049442  -0.028415   0.110027
  106  C 27  X   -0.041390   0.051993   0.029359  -0.070774
  107  C 27  Y   -0.001669  -0.052744   0.097483  -0.228629
  108  C 27  Z   -0.052248  -0.029484  -0.037961   0.039366
  109  C 28  S   -0.082306   0.147915  -0.059849   0.036133
  110  C 28  X    0.183588  -0.220466   0.067773  -0.015252
  111  C 28  Y    0.086101  -0.082568  -0.018974   0.056342
  112  C 28  Z    0.039915  -0.070791   0.004128  -0.118222
  113  C 29  S    0.075472  -0.102194   0.029306  -0.211123
  114  C 29  X   -0.073955   0.130719  -0.054881   0.240948
  115  C 29  Y   -0.002178   0.112581  -0.052432   0.035754
  116  C 29  Z   -0.012657   0.112807  -0.062623   0.320658
  117  C 30  S    0.071034  -0.133704   0.117810   0.057552
  118  C 30  X   -0.150190   0.198573  -0.098874  -0.065364
  119  C 30  Y   -0.085206   0.013262   0.007839   0.057895
  120  C 30  Z    0.078670  -0.029399   0.047183   0.025711
  121  C 31  S    0.070910   0.103127  -0.118456  -0.172355
  122  C 31  X   -0.114420  -0.152395   0.113285   0.120553
  123  C 31  Y    0.148871   0.085920  -0.084359  -0.072027
  124  C 31  Z   -0.008351   0.047808  -0.052219   0.072019
  125  C 32  S   -0.086378  -0.012617   0.038304   0.249212
  126  C 32  X    0.109257  -0.003839  -0.000759  -0.261257
  127  C 32  Y   -0.051814  -0.034268   0.014035   0.143203
  128  C 32  Z    0.062238  -0.048825   0.055821  -0.215502

     ----------------------------------------------------------------
     PROPERTY VALUES FOR THE RHF   SELF-CONSISTENT FIELD WAVEFUNCTION
     ----------------------------------------------------------------

                    -------------
                    MOPAC CHARGES
                    -------------
         ATOM NO.   TYPE          CHARGE        ATOM  ELECTRON DENSITY
           1         C             -0.0165          4.0165
           2         C             -0.0021          4.0021
           3         C             -0.0362          4.0362
           4         C             -0.0473          4.0473
           5         C              0.0080          3.9920
           6         C              0.0194          3.9806
           7         C              0.0488          3.9512
           8         C              0.0094          3.9906
           9         C              0.0108          3.9892
          10         C             -0.0020          4.0020
          11         C             -0.0124          4.0124
          12         C              0.0273          3.9727
          13         C             -0.0318          4.0318
          14         C             -0.0282          4.0282
          15         C             -0.0105          4.0105
          16         C              0.0050          3.9950
          17         C              0.0281          3.9719
          18         C              0.1106          3.8894
          19         C              0.0096          3.9904
          20         C              0.0117          3.9883
          21         C              0.0322          3.9678
          22         C              0.0152          3.9848
          23         C              0.0006          3.9994
          24         C             -0.0005          4.0005
          25         C             -0.0348          4.0348
          26         C              0.0094          3.9906
          27         C             -0.0058          4.0058
          28         C             -0.0133          4.0133
          29         C              0.0252          3.9748
          30         C             -0.0307          4.0307
          31         C             -0.0317          4.0317
          32         C             -0.0679          4.0679

          ---------------------
          ELECTROSTATIC MOMENTS
          ---------------------

 POINT   1           X           Y           Z (ANGS)      CHARGE
                 0.000000    0.000000    0.000000       -0.00 (A.U.)
         DX          DY          DZ         /D/  (DEBYE)
     0.209381    0.032865    0.016716    0.212603
 ...... END OF PROPERTY EVALUATION ......
 CPU     0: STEP CPU TIME=     0.03 TOTAL CPU TIME=          1.0 (      0.0 MIN)
 TOTAL WALL CLOCK TIME=          1.2 SECONDS, CPU UTILIZATION IS    82.38%
  $VIB   
          IVIB=   0 IATOM=   0 ICOORD=   0 E=     -138.1689078749
  4.072178828E-04 8.856828369E-05-6.931489523E-05-1.969832104E-04 3.930029306E-04
  5.002420752E-07 1.651930676E-04 3.133799221E-04 1.922817358E-04-2.131151306E-04
  1.115975444E-04 1.234264104E-04 2.353005714E-04 9.685563694E-05 4.690209251E-05
 -1.309282811E-04 1.412693520E-04-3.969604143E-05-1.450602113E-05 1.165419733E-04
 -9.774495849E-05 6.065688344E-05-3.838572236E-04 2.888844377E-04 5.259285859E-05
 -2.563386995E-04 2.997885760E-04 1.511003132E-04-1.862724345E-04 1.623378025E-04
  3.944121049E-05-3.587695402E-04 8.887938063E-05 1.496420473E-04 1.611201860E-04
  1.639752093E-04 2.106251226E-04-3.363974360E-04 1.577723673E-04-2.252174890E-04
 -2.412982945E-05 3.126200971E-04-9.944074816E-05 3.399264559E-04 2.918241135E-04
  3.316047715E-05 2.815074344E-04 4.426235137E-05 2.683515718E-04-2.175122280E-04
  4.417751781E-05 3.615581467E-04-2.916904923E-06 5.731926661E-05-2.670121099E-05
 -1.148636193E-04-6.495414497E-05-9.116733739E-05-1.730396133E-04-2.167284589E-04
 -9.794165247E-05-1.347981552E-04 2.678166144E-05-1.959525586E-04 4.494825504E-05
 -4.807122705E-04 3.847911652E-04 1.207212571E-04-6.444899470E-06 2.949468696E-05
  2.675665480E-06-3.079008966E-04 2.169044202E-04-6.998867350E-05-2.012545146E-04
 -3.581869588E-04 6.642096845E-05-3.144301902E-04-8.865391456E-05-1.428663918E-05
 -2.708434590E-05 9.424585071E-05 4.687930091E-05-2.353486501E-04-1.944689129E-04
 -1.067670942E-04 8.944779162E-06-3.537880429E-04 4.879346104E-05-1.924755252E-04
 -2.868064541E-04-1.547506340E-04-1.450292297E-04-2.864183530E-04 1.604800977E-04
  8.844098015E-05
  2.093810664E-01 3.286519615E-02 1.671617748E-02
 ......END OF GEOMETRY SEARCH......
 CPU     0: STEP CPU TIME=     0.03 TOTAL CPU TIME=          1.0 (      0.0 MIN)
 TOTAL WALL CLOCK TIME=          1.2 SECONDS, CPU UTILIZATION IS    83.99%
                580000  WORDS OF DYNAMIC MEMORY USED
 EXECUTION OF GAMESS TERMINATED NORMALLY 21:03:20 22-MAY-2023    
 DDI: 263640 bytes (0.3 MB / 0 MWords) used by master data server.

 ----------------------------------------
 CPU timing information for all processes
 ========================================
 0: 0.640625 + 0.453125 = 1.093750
 1: 0.671875 + 0.203125 = 0.875000
 2: 0.250000 + 0.343750 = 0.593750
 3: 0.140625 + 0.234375 = 0.375000
 ----------------------------------------
           Disk usage (in bytes)       
 ========================================
 ----------------------------------------
            Local date and time          
 ========================================
22.05.2023 - 21:03:20,26                          
