          *******************************************************
          *                                                     *
          *          GAMESS VERSION = 30 SEP 2022 (R2)          *
          *                                                     *
          *              doi.org/10.1063/5.0005188              *
          *                                                     *
          *************** 64 BIT WINDOWS VERSION ****************

  GAMESS HAS BEEN MADE POSSIBLE WITH IMPORTANT CONTRIBUTIONS FROM
  THE FOLLOWING INDIVIDUALS (IN ALPHABETICAL ORDER):

     IVANA ADAMOVIC, CHRISTINE AIKENS, TOMOKO AKAMA,
     MELISA ALKAN, YURI ALEXEEV, YURIKO AOKI, POOJA ARORA,
     TOSHIO ASADA, ANDREY ASADCHEV, KIM K. BALDRIDGE,
     PRADIPTA BANDYOPADHYAY, TAYLOR A. BARNES, MARIA BARYSZ,
     ROB BELL, JONATHAN BENTZ, COLLEEN BERTONI,
     JERRY A. BOATZ, BRETT BODE, KURT BRORSEN, KURT R. BRORSEN,
     LAIMUTIS BYTAUTAS, CALEB CARLIN, LAURA CARRINGTON,
     GALINA CHABAN, BENOIT CHAMPAGNE, WEI CHEN, MAHITO CHIBA,
     DAN CHIPMAN, CHEOL HO CHOI, TANNER CULPITT,
     DIPAYAN DATTA, PAUL DAY, ALBERT DEFUSCO,
     NUWAN DESILVA, J. EMILIANO DEUSTUA,
     TIM DUDLEY, MICHEL DUPUIS, STEVEN T. ELBERT,
     DMITRI FEDOROV, KATHERINE FERRERAS, MICHAEL FILATOV,
     ALEX FINDLATER,GRAHAM FLETCHER, MARK FREITAG,
     CHRISTIAN FRIEDL, DAVID GARMER, 
     IGOR S. GERASIMOV, KURT GLAESEMANN,
     MARK S. GORDON, JEFFREY GOUR, FENG LONG GU,
     EMILIE B. GUIDEZ, ANASTASIA GUNINA, SHARON HAMMES-SCHIFFER,
     MASATAKE HARUTA, KIMIHIKO HIRAO, YASUHIRO IKABATA,
     TZVETELIN IORDANOV, STEPHAN IRLE, KAZUYA ISHIMURA,
     JOE IVANIC, FRANK JENSEN, JAN H. JENSEN, VISVALDAS KAIRYS,
     MUNEAKI KAMIYA, MICHIO KATOUDA, NAOAKI KAWAKAMI, DAN KEMP,
     BERNARD KIRTMAN, KAZUO KITAURA, MARIUSZ KLOBUKOWSKI,
     MASATO KOBAYASHI, KONSTANTIN KOMAROV, PRAKASHAN KORAMBATH,
     JACEK KORCHOWIEC, SHIRO KOSEKI, KAROL KOWALSKI,
     JIMMY KROMANN, STANISLAW KUCHARSKI, HENRY KURTZ,
     SAROM SOK LEANG, SEUNGHOON LEE, HUI LI, SHUHUA LI, WEI LI,
     JESSE LUTZ, ALEKSANDR O. LYKHIN, MARCIN MAKOWSKI,
     JOANI MATO, NIKITA MATSUNAGA, BENEDETTA MENNUCCI,
     GRANT MERRILL, NORIYUKI MINEZAWA, VLADIMIR MIRONOV,
     EISAKU MIYOSHI, JOHN A. MONTGOMERY JR., HIROTOSHI MORI,
     JONATHAN MULLIN, MONIKA MUSIAL, SHIGERU NAGASE,
     TAKESHI NAGATA, HIROMI NAKAI, TAKAHITO NAKAJIMA,
     YUYA NAKAJIMA, HARUYUKI NAKANO, HIROYA NAKATA, SEAN NEDD,
     HEATHER NETZLOFF, KIET A. NGUYEN, YOSHIO NISHIMOTO,
     BOSILJKA NJEGIC, RYAN OLSON, MIKE PAK, ROBERTO PEVERATI,
     BUU PHAM, PIOTR PIECUCH, ANNA POMOGAEVA, DAVID POOLE,
     SPENCER PRUITT, OLIVIER QUINET, LUKE ROSKOP,
     KLAUS RUEDENBERG, ANDREW SAND, TOSAPORN SATTASATHUCHANA,
     NOZOMI SAWADA, MICHAEL W. SCHMIDT, PATRICK E. SCHNEIDER,
     JUNJI SEINO, PRACHI SHARMA, JUN SHEN, JIM SHOEMAKER,
     YINAN SHU, DEJUN SI, JONATHAN SKONE, LYUDMILA SLIPCHENKO,
     TONY SMITH, JIE SONG, MARK SPACKMAN, CASPER STEINMANN,
     WALT STEVENS, PEIFENG SU, SHUJUN SU, CHET SWALINA,
     CHINAMI TAKASHIMA, TETSUYA TAKETSUGU, ZHEN TAO,
     NANDUN THELLAMUREGE, SEIKEN TOKURA, JACOPO TOMASI,
     TSUGUKI TOUMA, TAKAO TSUNEDA, HIROAKI UMEDA,
     JORGE LUIS GALVEZ VALLEJO, YALI WANG, SIMON WEBB,
     AARON WEST, THERESA L. WINDUS, MARTA WLOCH,
     PENG XU, KIYOSHI YAGI, SUSUMU YANAGISAWA, YANG YANG,
     SOOHAENG YOO, TAKESHI YOSHIKAWA, FEDERICO ZAHARIEV,
     TOBY ZENG

  WHO ARE SUPPORTED BY THEIR INSTITUTION/UNIVERSITY/COMPANY/GROUP
  (IN ALPHABETICAL ORDER):

     EP ANALYTICS,
     FACULTES UNIVERSITAIRES NOTRE-DAME DE LA PAIX,
     INSTITUTE FOR MOLECULAR SCIENCE, IOWA STATE UNIVERSITY,
     JACKSON STATE UNIVERSITY, JOHANNES KEPLER UNIVERSITY LINZ,
     KYUNGPOOK NATIONAL UNIVERSITY
     KYUSHU UNIVERSITY, MICHIGAN STATE UNIVERSITY,
     MIE UNIVERSITY, THE MOLECULAR SCIENCES SOFTWARE INSTITUTE,
     MOSCOW STATE UNIVERSITY,
     N. COPERNICUS UNIVERSITY, NAGOYA UNIVERSITY,
     NANJING UNIVERSITY, NAT. INST. OF ADVANCED INDUSTRIAL
     SCIENCE AND TECHNOLOGY, NATIONAL INST. OF STANDARDS AND
     TECHNOLOGY, NESMEYANOV INSTITUTE OF ORGANOELEMENT COMPOUNDS
     OF RUSSIAN ACADEMY OF SCIENCES, OSAKA PREFECTURE UNIVERSITY,
     PENNSYLVANIA STATE UNIVERSITY, TOKYO INSTITUTE OF TECHNOLOGY,
     UNIVERSITY OF AARHUS, UNIVERSITY OF ALBERTA,
     UNIVERSITY OF CALIFORNIA AT SANTA BARBARA,
     UNIVERSITY OF COPENHAGEN, UNIVERSITY OF IOWA,
     UNIVERSITY OF MEMPHIS, UNIVERSITY OF MINNESOTA,
     UNIVERSITY OF NEBRASKA, UNIVERSITY OF NEW ENGLAND,
     UNIVERSITY OF NOTRE DAME, UNIVERSITY OF PISA,
     UNIVERSITY OF SILESIA, UNIVERSITY OF TOKYO,
     UNIVERSITY OF ZURICH, WASEDA UNIVERSITY,
     YALE UNIVERSITY

  GAMESS SOFTWARE MANAGEMENT TEAM FOR THIS RELEASE:
     MARK S. GORDON (TEAM LEAD),
     BRETT BODE (SENIOR ADVISOR),
     GIUSEPPE BARCA,
     COLLEEN BERTONI,
     KRISTOPHER KEIPERT (ADVISOR),
     SAROM S. LEANG (DEVELOPMENT LEAD),
     BUU PHAM,
     JACKSON HAYES (WEBSITE ADMINISTRATOR),
     PENG XU


 PARALLEL VERSION RUNNING ON        2 PROCESSORS IN        2 NODES.

 EXECUTION OF GAMESS BEGUN 21:03:51 22-MAY-2023    

            ECHO OF THE FIRST FEW INPUT CARDS -
 INPUT CARD>! (Energy/Geometry) PM3                                                         
 INPUT CARD> $CONTRL                                                                        
 INPUT CARD>COORD=UNIQUE                                                                    
 INPUT CARD>ICHARG=0                                                                        
 INPUT CARD>MAXIT=200                                                                       
 INPUT CARD>MULT=1                                                                          
 INPUT CARD>RUNTYP=OPTIMIZE                                                                 
 INPUT CARD>SCFTYP=RHF                                                                      
 INPUT CARD>UNITS=ANGS                                                                      
 INPUT CARD>! DFTTYP=PBE                                                                    
 INPUT CARD> $END                                                                           
 INPUT CARD> $DFT                                                                           
 INPUT CARD>METHOD=GRID                                                                     
 INPUT CARD> $END                                                                           
 INPUT CARD> $BASIS                                                                         
 INPUT CARD>! EXTFIL=.T.                                                                    
 INPUT CARD>! GBASIS=GEGSSBAS                                                               
 INPUT CARD>! NGAUSS=6                                                                      
 INPUT CARD>GBASIS=PM3                                                                      
 INPUT CARD>! NDFUNC=1                                                                      
 INPUT CARD>! NPFUNC=1                                                                      
 INPUT CARD> $END                                                                           
 INPUT CARD> $SCF                                                                           
 INPUT CARD>DAMP=.F.                                                                        
 INPUT CARD>DEM=.F.                                                                         
 INPUT CARD>DIIS=.F.                                                                        
 INPUT CARD>DIRSCF=.T.                                                                      
 INPUT CARD>EXTRAP=.T.                                                                      
 INPUT CARD>RSTRCT=.F.                                                                      
 INPUT CARD>SHIFT=.F.                                                                       
 INPUT CARD>SOSCF=.T.                                                                       
 INPUT CARD> $END                                                                           
 INPUT CARD> $STATPT                                                                        
 INPUT CARD>METHOD=QA                                                                       
 INPUT CARD>NSTEP=100                                                                       
 INPUT CARD>OPTTOL=0.001                                                                    
 INPUT CARD> $END                                                                           
 INPUT CARD> $GUESS                                                                         
 INPUT CARD>GUESS=HUCKEL                                                                    
 INPUT CARD> $END                                                                           
 INPUT CARD> $SYSTEM                                                                        
 INPUT CARD>MWORDS=10                                                                       
 INPUT CARD> $END                                                                           
 INPUT CARD> $DATA                                                                          
 INPUT CARD>C32 FULLERENE                                                                   
 INPUT CARD>C1                                                                              
 INPUT CARD>C	6.0	-2.80970	0.00660	0.00420                                                  
 INPUT CARD>C	6.0	-2.36070	-1.23590	-0.40000                                                
 INPUT CARD>C	6.0	-1.65970	0.29290	-1.85150                                                 
 INPUT CARD>C	6.0	-2.34300	0.96830	-0.86850                                                 
     10000000 WORDS OF MEMORY AVAILABLE

     BASIS OPTIONS
     -------------
     GBASIS=PM3          IGAUSS=       0      POLAR=NONE    
     NDFUNC=       0     NFFUNC=       0     DIFFSP=       F
     NPFUNC=       0      DIFFS=       F     BASNAM=        


     RUN TITLE
     ---------
 C32 FULLERENE                                                                   

 THE POINT GROUP OF THE MOLECULE IS C1      
 THE ORDER OF THE PRINCIPAL AXIS IS     0

 ATOM      ATOMIC                      COORDINATES (BOHR)
           CHARGE         X                   Y                   Z
 C           6.0    -5.3095631077        0.0124721915        0.0079368491
 C           6.0    -4.4610761392       -2.3355123482       -0.7558903951
 C           6.0    -3.1363782218        0.5535007418       -3.4988276663
 C           6.0    -4.4276279892        1.8298216739       -1.6412270203
 C           6.0     0.5848701932       -4.1420903925       -1.2695179186
 C           6.0    -0.5912952616       -2.8563208304       -3.3255397932
 C           6.0    -3.0828989764       -2.0067000264       -2.9714051431
 C           6.0    -3.0755290450        3.5473936242       -0.2133500640
 C           6.0    -0.7402056694        1.2704627815       -4.1670347755
 C           6.0     0.5922401246        3.1883456865       -2.9313429522
 C           6.0    -0.5924290972        4.3012053207       -0.7948187504
 C           6.0     0.7999210106       -0.8399832015       -4.3527948401
 C           6.0    -3.2019517136        2.7576771339        2.2895920067
 C           6.0    -4.5071854533        0.5094701263        2.4303765928
 C           6.0    -3.1178589071       -1.5654490082        3.2267071240
 C           6.0    -0.7849921753        2.9880347318        3.2095106175
 C           6.0     0.5812797138        0.9641381989        4.2426238150
 C           6.0    -0.6213419048       -1.4433727094        4.1524838854
 C           6.0     0.7710082030        4.1902784052        1.4700178458
 C           6.0    -0.7636382716       -4.2482929930        1.0149718280
 C           6.0    -3.1654800020       -3.3365002039        1.2526993573
 C           6.0     3.1216383591       -2.9642241843        1.9328117402
 C           6.0     0.7583470389       -3.3268626014        2.9041308979
 C           6.0     4.4221477839       -0.7437961488        2.2731513906
 C           6.0     3.0464272648        1.2438176451        3.3062645881
 C           6.0     5.3371531071       -0.0209759585       -0.0442195881
 C           6.0     4.4580525776        2.4075109084       -0.4743212229
 C           6.0     3.1809757551        3.2524073975        1.6160936647
 C           6.0     3.0657024699        2.2217508438       -2.7040089158
 C           6.0     3.1004734281       -3.4867334199       -0.6472311508
 C           6.0     4.5325077816       -1.6623919514       -1.9063555764
 C           6.0     3.2170695215       -0.2475541044       -3.6269510882

          INTERNUCLEAR DISTANCES (ANGS.)
          ------------------------------

                1 C          2 C          3 C          4 C          5 C     

   1 C       0.0000000    1.3815878 *  2.2018379 *  1.3799569 *  3.8755370  
   2 C       1.3815878 *  0.0000000    2.2215946 *  2.2535091 *  2.8491717 *
   3 C       2.2018379 *  2.2215946 *  0.0000000    1.3745374 *  3.3828497  
   4 C       1.3799569 *  2.2535091 *  1.3745374 *  0.0000000    4.1305340  
   5 C       3.8755370    2.8491717 *  3.3828497    4.1305340    0.0000000  
   6 C       3.4132585    2.4735594 *  2.2534725 *  3.3264290    1.4262082 *
   7 C       2.2395872 *  1.3916452 *  1.3835392 *  2.2635286 *  2.4197258 *
   8 C       2.2159543 *  3.2111369    2.3523973 *  1.3816551 *  4.5411357  
   9 C       3.3422877    3.2827693    1.3699640 *  2.3836290 *  3.3236023  
  10 C       3.8726527    4.1256013    2.4346203 *  2.8353761 *  3.9775340  
  11 C       3.4003088    4.0651687    2.7915608 *  2.4555703 *  4.5182136  
  12 C       3.9975990    3.4640874    2.2554071 *  3.4216016    2.3934234 *
  13 C       2.1936377 *  3.2101890    3.2778460    2.2335127 *  4.5710034  
  14 C       1.3757623 *  2.2605439 *  3.2204475    2.2654481 *  4.1416451  
  15 C       2.2234190 *  2.2611610 *  3.7314730    3.2162547    3.3703782  
  16 C       3.3290166    4.0154112    3.9761526    3.2680673    4.5143783  
  17 C       3.8720544    4.1430960    4.5496835    4.1146131    3.9761355  
  18 C       3.3997805    3.3313635    4.3910706    4.0567123    3.2679053  
  19 C       3.9799299    4.5802215    3.8591227    3.4407680    4.6425487  
  20 C       3.3398452    2.3939484 *  3.7065648    4.0100216    1.4049280 *
  21 C       2.2049707 *  1.3712716 *  3.2495949    3.2039796    2.4293606 *
  22 C       4.8399045    4.2703639    4.7637671    5.0962833    2.2499355 *
  23 C       3.9726598    3.4139484    4.4659545    4.5566435    2.2522094 *
  24 C       5.3025920    5.0374873    5.0792757    5.2987636    3.2972290  
  25 C       4.7982621    4.8981154    4.8791434    4.7532542    3.9601786  
  26 C       5.6340954    5.3409913    4.8518678    5.3267633    3.3912432  
  27 C       5.3280318    5.3477389    4.4356410    4.7523156    4.0485054  
  28 C       4.8837240    5.1646212    4.5322874    4.4439781    4.4193466  
  29 C       4.8030127    4.7689473    3.4245823    4.0103507    3.6932921  
  30 C       4.8327067    4.0479171    4.2119788    4.9052789    1.4144971 *
  31 C       5.3793163    4.8111849    4.3074495    5.0908359    2.4898512 *
  32 C       4.9069168    4.4763666    3.3893959    4.3217939    2.7827568 *

                6 C          7 C          8 C          9 C         10 C     

   1 C       3.4132585    2.2395872 *  2.2159543 *  3.3422877    3.8726527  
   2 C       2.4735594 *  1.3916452 *  3.2111369    3.2827693    4.1256013  
   3 C       2.2534725 *  1.3835392 *  2.3523973 *  1.3699640 *  2.4346203 *
   4 C       3.3264290    2.2635286 *  1.3816551 *  2.3836290 *  2.8353761 *
   5 C       1.4262082 *  2.4197258 *  4.5411357    3.3236023    3.9775340  
   6 C       0.0000000    1.4055964 *  3.9904562    2.2301309 *  3.2661058  
   7 C       1.4055964 *  0.0000000    3.2815338    2.2236490 *  3.3675284  
   8 C       3.9904562    3.2815338    0.0000000    2.7122475 *  2.4232003 *
   9 C       2.2301309 *  2.2236490 *  2.7122475 *  0.0000000    1.3981321 *
  10 C       3.2661058    3.3675284    2.4232003 *  1.3981321 *  0.0000000  
  11 C       4.0173836    3.7690513    1.4072656 *  2.4005687 *  1.4205855 *
  12 C       1.4056957 *  2.2665692 *  3.7939902    1.3860484 *  2.2631897 *
  13 C       4.4230547    3.7564710    1.3904734 *  3.7403523    3.4229027  
  14 C       4.0919234    3.2422181    2.2617552 *  4.0403327    4.1643443  
  15 C       3.7784076    3.2882531    3.2610779    4.3753407    4.5609117  
  16 C       4.6405223    4.3775297    2.1994568 *  4.0079887    3.3320092  
  17 C       4.5289640    4.5611978    3.3426733    4.5077241    3.9745762  
  18 C       4.0272497    3.9996278    3.7415223    4.6312359    4.5245800  
  19 C       4.5677471    4.5207158    2.2477813 *  3.4532800    2.3905581 *
  20 C       2.4138448 *  2.7135449 *  4.3517017    4.0060642    4.5124704  
  21 C       2.7909910 *  2.3438578 *  3.7247984    3.9769204    4.5583110  
  22 C       3.4068405    4.2156692    4.8905845    4.4291390    4.3608820  
  23 C       3.3822558    3.7798196    4.4800001    4.5331204    4.6292662  
  24 C       4.1310653    4.8909843    4.7570697    4.4959246    4.0027876  
  25 C       4.5529234    4.9512342    3.9306330    4.4334034    3.6933377  
  26 C       3.8869408    4.8328919    4.8365494    3.9458214    3.3945566  
  27 C       4.1442818    4.8090141    4.0343403    3.4274554    2.4588906 *
  28 C       4.6122383    4.9624154    3.4529671    3.8433114    2.7692122 *
  29 C       3.3277948    3.9513845    3.5763705    2.2156248 *  1.4104338 *
  30 C       2.4365100 *  3.5822751    4.9587664    3.7332601    3.9623004  
  31 C       2.8835503 *  4.0731972    4.9610292    3.4095533    3.3512409  
  32 C       2.4479899 *  3.4786688    4.2876780    2.2610235 *  2.3174706 *

               11 C         12 C         13 C         14 C         15 C     

   1 C       3.4003088    3.9975990    2.1936377 *  1.3757623 *  2.2234190 *
   2 C       4.0651687    3.4640874    3.2101890    2.2605439 *  2.2611610 *
   3 C       2.7915608 *  2.2554071 *  3.2778460    3.2204475    3.7314730  
   4 C       2.4555703 *  3.4216016    2.2335127 *  2.2654481 *  3.2162547  
   5 C       4.5182136    2.3934234 *  4.5710034    4.1416451    3.3703782  
   6 C       4.0173836    1.4056957 *  4.4230547    4.0919234    3.7784076  
   7 C       3.7690513    2.2665692 *  3.7564710    3.2422181    3.2882531  
   8 C       1.4072656 *  3.7939902    1.3904734 *  2.2617552 *  3.2610779  
   9 C       2.4005687 *  1.3860484 *  3.7403523    4.0403327    4.3753407  
  10 C       1.4205855 *  2.2631897 *  3.4229027    4.1643443    4.5609117  
  11 C       0.0000000    3.3896127    2.2886948 *  3.3511780    3.9940825  
  12 C       3.3896127    0.0000000    4.5237521    4.6131941    4.5313195  
  13 C       2.2886948 *  4.5237521    0.0000000    1.3776802 *  2.3412536 *
  14 C       3.3511780    4.6131941    1.3776802 *  0.0000000    1.3869755 *
  15 C       3.9940825    4.5313195    2.3412536 *  1.3869755 *  0.0000000  
  16 C       2.2323599 *  4.5630342    1.3739268 *  2.4020833 *  2.7074426 *
  17 C       3.2573186    4.6490527    2.4447734 *  2.8684844 *  2.4315982 *
  18 C       4.0118761    4.5743642    2.7890569 *  2.4752279 *  1.4104894 *
  19 C       1.4001465 *  4.0718983    2.2765977 *  3.4429057    3.7915704  
  20 C       4.6253414    3.4649681    3.9830439    3.2900114    2.2220265 *
  21 C       4.4003711    3.8662027    3.2713031    2.2437730 *  1.4036267 *
  22 C       4.5527924    3.7197668    4.5168072    4.4436106    3.4523316  
  23 C       4.5427407    4.0594921    3.8554929    3.4566142    2.2595067 *
  24 C       4.0993467    3.9963549    4.4396514    4.7722397    4.0452160  
  25 C       3.3219428    4.3653181    3.4444372    4.0427033    3.5850238  
  26 C       3.9031834    3.3393168    4.9097811    5.3787946    4.8664628  
  27 C       2.8593285 *  3.3034693    4.3132815    5.0871337    4.9323310  
  28 C       2.4337011 *  4.0316470    3.4065257    4.3410144    4.2821242  
  29 C       2.4451805 *  2.1963391 *  4.2501452    4.9256838    4.9571427  
  30 C       4.5617197    2.6997911 *  4.9454199    4.8302546    4.0080204  
  31 C       4.2023799    2.4014169 *  5.2108471    5.4286541    4.8754959  
  32 C       3.4790925    1.3718279 *  4.8856769    5.2098681    4.9877811  

               16 C         17 C         18 C         19 C         20 C     

   1 C       3.3290166    3.8720544    3.3997805    3.9799299    3.3398452  
   2 C       4.0154112    4.1430960    3.3313635    4.5802215    2.3939484 *
   3 C       3.9761526    4.5496835    4.3910706    3.8591227    3.7065648  
   4 C       3.2680673    4.1146131    4.0567123    3.4407680    4.0100216  
   5 C       4.5143783    3.9761355    3.2679053    4.6425487    1.4049280 *
   6 C       4.6405223    4.5289640    4.0272497    4.5677471    2.4138448 *
   7 C       4.3775297    4.5611978    3.9996278    4.5207158    2.7135449 *
   8 C       2.1994568 *  3.3426733    3.7415223    2.2477813 *  4.3517017  
   9 C       4.0079887    4.5077241    4.6312359    3.4532800    4.0060642  
  10 C       3.3320092    3.9745762    4.5245800    2.3905581 *  4.5124704  
  11 C       2.2323599 *  3.2573186    4.0118761    1.4001465 *  4.6253414  
  12 C       4.5630342    4.6490527    4.5743642    4.0718983    3.4649681  
  13 C       1.3739268 *  2.4447734 *  2.7890569 *  2.2765977 *  3.9830439  
  14 C       2.4020833 *  2.8684844 *  2.4752279 *  3.4429057    3.2900114  
  15 C       2.7074426 *  2.4315982 *  1.4104894 *  3.7915704    2.2220265 *
  16 C       0.0000000    1.4030862 *  2.3990676 *  1.3892654 *  4.0015352  
  17 C       1.4030862 *  0.0000000    1.4249057 *  2.2532838 *  3.3214454  
  18 C       2.3990676 *  1.4249057 *  0.0000000    3.3831063    2.2283206 *
  19 C       1.3892654 *  2.2532838 *  3.3831063    0.0000000    4.5451272  
  20 C       4.0015352    3.3214454    2.2283206 *  4.5451272    0.0000000  
  21 C       3.7229255    3.4078911    2.2739431 *  4.4963118    1.3653105 *
  22 C       3.8277153    2.7609001 *  2.4393771 *  3.9926256    2.2191802 *
  23 C       3.4438456    2.3804510 *  1.4010172 *  4.0496497    1.3732527 *
  24 C       3.4260963    2.4564388 *  2.8721256 *  3.2758139    3.3783270  
  25 C       2.2282968 *  1.4032621 *  2.4473867 *  2.1966252 *  3.7392243  
  26 C       3.9994588    3.4280643    3.9294465    3.3833119    3.9674798  
  27 C       3.4047588    3.3200238    4.1679849    2.3990477 *  4.5454993  
  28 C       2.2660759 *  2.3001416 *  3.4676758    1.3706491 *  4.4958842  
  29 C       3.7562175    3.9603412    4.5533518    2.7273542 *  4.4386628  
  30 C       4.4869089    3.7443648    3.3910517    4.3907575    2.2621477 *
  31 C       4.6155166    4.1099331    4.2108570    4.0922385    3.4809327  
  32 C       4.5281850    4.4383366    4.6339430    3.8033330    3.8669569  

               21 C         22 C         23 C         24 C         25 C     

   1 C       2.2049707 *  4.8399045    3.9726598    5.3025920    4.7982621  
   2 C       1.3712716 *  4.2703639    3.4139484    5.0374873    4.8981154  
   3 C       3.2495949    4.7637671    4.4659545    5.0792757    4.8791434  
   4 C       3.2039796    5.0962833    4.5566435    5.2987636    4.7532542  
   5 C       2.4293606 *  2.2499355 *  2.2522094 *  3.2972290    3.9601786  
   6 C       2.7909910 *  3.4068405    3.3822558    4.1310653    4.5529234  
   7 C       2.3438578 *  4.2156692    3.7798196    4.8909843    4.9512342  
   8 C       3.7247984    4.8905845    4.4800001    4.7570697    3.9306330  
   9 C       3.9769204    4.4291390    4.5331204    4.4959246    4.4334034  
  10 C       4.5583110    4.3608820    4.6292662    4.0027876    3.6933377  
  11 C       4.4003711    4.5527924    4.5427407    4.0993467    3.3219428  
  12 C       3.8662027    3.7197668    4.0594921    3.9963549    4.3653181  
  13 C       3.2713031    4.5168072    3.8554929    4.4396514    3.4444372  
  14 C       2.2437730 *  4.4436106    3.4566142    4.7722397    4.0427033  
  15 C       1.4036267 *  3.4523316    2.2595067 *  4.0452160    3.5850238  
  16 C       3.7229255    3.8277153    3.4438456    3.4260963    2.2282968 *
  17 C       3.4078911    2.7609001 *  2.3804510 *  2.4564388 *  1.4032621 *
  18 C       2.2739431 *  2.4393771 *  1.4010172 *  2.8721256 *  2.4473867 *
  19 C       4.4963118    3.9926256    4.0496497    3.2758139    2.1966252 *
  20 C       1.3653105 *  2.2191802 *  1.3732527 *  3.3783270    3.7392243  
  21 C       0.0000000    3.3522032    2.2528125 *  4.2773608    4.2262758  
  22 C       3.3522032    0.0000000    1.3656581 *  1.3735648 *  2.3427464 *
  23 C       2.2528125 *  1.3656581 *  0.0000000    2.3955898 *  2.7131956 *
  24 C       4.2773608    1.3735648 *  2.3955898 *  0.0000000    1.3910960 *
  25 C       4.2262758    2.3427464 *  2.7131956 *  1.3910960 *  0.0000000  
  26 C       4.8778969    2.2124336 *  3.3712836    1.3727955 *  2.2496489 *
  27 C       5.1331424    3.1942250    4.0295657    2.2124819 *  2.2225254 *
  28 C       4.8448846    3.2941162    3.7722197    2.2414811 *  1.3909627 *
  29 C       4.8895901    3.6813995    4.3496385    3.1487842    3.2223424  
  30 C       3.4657869    1.3930620 *  2.2527845 *  2.2325487 *  3.2625467  
  31 C       4.4915049    2.2714298 *  3.3533112    2.2652419 *  3.2545863  
  32 C       4.5549073    3.2749346    4.0364290    3.1974604    3.7539070  

               26 C         27 C         28 C         29 C         30 C     

   1 C       5.6340954    5.3280318    4.8837240    4.8030127    4.8327067  
   2 C       5.3409913    5.3477389    5.1646212    4.7689473    4.0479171  
   3 C       4.8518678    4.4356410    4.5322874    3.4245823    4.2119788  
   4 C       5.3267633    4.7523156    4.4439781    4.0103507    4.9052789  
   5 C       3.3912432    4.0485054    4.4193466    3.6932921    1.4144971 *
   6 C       3.8869408    4.1442818    4.6122383    3.3277948    2.4365100 *
   7 C       4.8328919    4.8090141    4.9624154    3.9513845    3.5822751  
   8 C       4.8365494    4.0343403    3.4529671    3.5763705    4.9587664  
   9 C       3.9458214    3.4274554    3.8433114    2.2156248 *  3.7332601  
  10 C       3.3945566    2.4588906 *  2.7692122 *  1.4104338 *  3.9623004  
  11 C       3.9031834    2.8593285 *  2.4337011 *  2.4451805 *  4.5617197  
  12 C       3.3393168    3.3034693    4.0316470    2.1963391 *  2.6997911 *
  13 C       4.9097811    4.3132815    3.4065257    4.2501452    4.9454199  
  14 C       5.3787946    5.0871337    4.3410144    4.9256838    4.8302546  
  15 C       4.8664628    4.9323310    4.2821242    4.9571427    4.0080204  
  16 C       3.9994588    3.4047588    2.2660759 *  3.7562175    4.4869089  
  17 C       3.4280643    3.3200238    2.3001416 *  3.9603412    3.7443648  
  18 C       3.9294465    4.1679849    3.4676758    4.5533518    3.3910517  
  19 C       3.3833119    2.3990477 *  1.3706491 *  2.7273542 *  4.3907575  
  20 C       3.9674798    4.5454993    4.4958842    4.4386628    2.2621477 *
  21 C       4.8778969    5.1331424    4.8448846    4.8895901    3.4657869  
  22 C       2.2124336 *  3.1942250    3.2941162    3.6813995    1.3930620 *
  23 C       3.3712836    4.0295657    3.7722197    4.3496385    2.2527845 *
  24 C       1.3727955 *  2.2124819 *  2.2414811 *  3.1487842    2.2325487 *
  25 C       2.2496489 *  2.2225254 *  1.3909627 *  3.2223424    3.2625467  
  26 C       0.0000000    1.3855305 *  2.2526286 *  2.1987166 *  2.2059669 *
  27 C       1.3855305 *  0.0000000    1.3712339 *  1.3945254 *  3.2020705  
  28 C       2.2526286 *  1.3712339 *  0.0000000    2.3510498 *  3.7621912  
  29 C       2.1987166 *  1.3945254 *  2.3510498 *  0.0000000    3.2109478  
  30 C       2.2059669 *  3.2020705    3.7621912    3.2109478    0.0000000  
  31 C       1.3808638 *  2.2834704 *  3.2787448    2.2372581 *  1.3965005 *
  32 C       2.2062349 *  2.2778290 *  3.3359391    1.3972886 *  2.3298592 *

               31 C         32 C     

   1 C       5.3793163    4.9069168  
   2 C       4.8111849    4.4763666  
   3 C       4.3074495    3.3893959  
   4 C       5.0908359    4.3217939  
   5 C       2.4898512 *  2.7827568 *
   6 C       2.8835503 *  2.4479899 *
   7 C       4.0731972    3.4786688  
   8 C       4.9610292    4.2876780  
   9 C       3.4095533    2.2610235 *
  10 C       3.3512409    2.3174706 *
  11 C       4.2023799    3.4790925  
  12 C       2.4014169 *  1.3718279 *
  13 C       5.2108471    4.8856769  
  14 C       5.4286541    5.2098681  
  15 C       4.8754959    4.9877811  
  16 C       4.6155166    4.5281850  
  17 C       4.1099331    4.4383366  
  18 C       4.2108570    4.6339430  
  19 C       4.0922385    3.8033330  
  20 C       3.4809327    3.8669569  
  21 C       4.4915049    4.5549073  
  22 C       2.2714298 *  3.2749346  
  23 C       3.3533112    4.0364290  
  24 C       2.2652419 *  3.1974604  
  25 C       3.2545863    3.7539070  
  26 C       1.3808638 *  2.2062349 *
  27 C       2.2834704 *  2.2778290 *
  28 C       3.2787448    3.3359391  
  29 C       2.2372581 *  1.3972886 *
  30 C       1.3965005 *  2.3298592 *
  31 C       0.0000000    1.3689840 *
  32 C       1.3689840 *  0.0000000  

  * ... LESS THAN  3.000


 TOTAL NUMBER OF BASIS SET SHELLS             =   32
 NUMBER OF CARTESIAN GAUSSIAN BASIS FUNCTIONS =  128
 NUMBER OF ELECTRONS                          =  128
 CHARGE OF MOLECULE                           =    0
 SPIN MULTIPLICITY                            =    1
 NUMBER OF OCCUPIED ORBITALS (ALPHA)          =   64
 NUMBER OF OCCUPIED ORBITALS (BETA )          =   64
 TOTAL NUMBER OF ATOMS                        =   32
 THE NUCLEAR REPULSION ENERGY IS     3166.1400816353

 THE PARAMETERS USED IN THIS CALCULATION ARE DESCRIBED IN:

  C: (PM3): J. J. P. STEWART, J. COMP. CHEM. 10, 209 (1989).                    

 THERE ARE   32 HEAVY AND    0 LIGHT ATOMS,
 YIELDING A TOTAL OF     49600 MOPAC 2E- INTEGRALS.

     $CONTRL OPTIONS
     ---------------
 SCFTYP=RHF          RUNTYP=OPTIMIZE     EXETYP=RUN     
 MPLEVL=       0     CITYP =NONE         CCTYP =NONE         VBTYP =NONE    
 DFTTYP=NONE         TDDFT =NONE    
 MULT  =       1     ICHARG=       0     NZVAR =       0     COORD =UNIQUE  
 PP    =NONE         RELWFN=NONE         LOCAL =NONE         NUMGRD=       F
 ISPHER=      -1     NOSYM =       0     MAXIT =     200     UNITS =ANGS    
 PLTORB=       F     MOLPLT=       F     AIMPAC=       F     FRIEND=        
 NPRINT=       7     IREST =       0     GEOM  =INPUT   
 NORMF =       0     NORMP =       0     ITOL  =      20     ICUT  =       9
 INTTYP=BEST         GRDTYP=BEST         QMTTOL= 1.0E-06

     $SYSTEM OPTIONS
     ---------------
  REPLICATED MEMORY=    10000000 WORDS (ON EVERY NODE).
 DISTRIBUTED MEMDDI=           0 MILLION WORDS IN AGGREGATE,
 MEMDDI DISTRIBUTED OVER   2 PROCESSORS IS           0 WORDS/PROCESSOR.
 TOTAL MEMORY REQUESTED ON EACH PROCESSOR=    10000000 WORDS.
 TIMLIM=      525600.00 MINUTES, OR     365.0 DAYS.
 PARALL= T  BALTYP=  DLB     KDIAG=    0  COREFL= F
 MXSEQ2=     300 MXSEQ3=     150  mem10=         0  mem22=         0

          ----------------
          PROPERTIES INPUT
          ----------------

     MOMENTS            FIELD           POTENTIAL          DENSITY
 IEMOM =       1   IEFLD =       0   IEPOT =       0   IEDEN =       0
 WHERE =COMASS     WHERE =NUCLEI     WHERE =NUCLEI     WHERE =NUCLEI  
 OUTPUT=BOTH       OUTPUT=BOTH       OUTPUT=BOTH       OUTPUT=BOTH    
 IEMINT=       0   IEFINT=       0                     IEDINT=       0
                                                       MORB  =       0
          EXTRAPOLATION IN EFFECT
          SOSCF IN EFFECT
 ORBITAL PRINTING OPTION: NPREO=     1   128     2     1

     -------------------------------
     INTEGRAL TRANSFORMATION OPTIONS
     -------------------------------
     NWORD  =            0
     CUTTRF = 1.0E-09     MPTRAN =       0
     DIRTRF =       T     AOINTS =DUP     

          ----------------------
          INTEGRAL INPUT OPTIONS
          ----------------------
 NOPK  =       1 NORDER=       0 SCHWRZ=       T

     ------------------------------------------
     THE POINT GROUP IS C1 , NAXIS= 0, ORDER= 1
     ------------------------------------------

     DIMENSIONS OF THE SYMMETRY SUBSPACES ARE
 A   =  128

 ..... DONE SETTING UP THE RUN .....
 CPU     0: STEP CPU TIME=     0.02 TOTAL CPU TIME=          0.0 (      0.0 MIN)
 TOTAL WALL CLOCK TIME=          0.0 SECONDS, CPU UTILIZATION IS    65.10%


          -----------------------------
          STATIONARY POINT LOCATION RUN
          -----------------------------

 OBTAINING INITIAL HESSIAN, HESS=GUESS   
 CARTESIAN COORDINATE OPTIMIZATION USING BADGER'S RULE FORCE CONSTANT GUESS

          PARAMETERS CONTROLLING GEOMETRY SEARCH ARE
          METHOD =QA                  UPHESS =BFGS    
          NNEG   =         0          NFRZ   =         0
          NSTEP  =       100          IFOLOW =         1
          HESS   =GUESS               RESTAR =         F
          IHREP  =         0          HSSEND =         F
          NPRT   =         0          NPUN   =         0
          OPTTOL = 1.000E-03          RMIN   = 1.500E-03
          RMAX   = 1.000E-01          RLIM   = 7.000E-02
          DXMAX  = 3.000E-01          PURIFY =         F
          MOVIE  =         F          TRUPD  =         T
          TRMAX  = 5.000E-01          TRMIN  = 5.000E-02
          ITBMAT =         5          STPT   =         F
          STSTEP = 1.000E-02          PROJCT=          T

 BEGINNING GEOMETRY SEARCH POINT NSERCH=   0 ...

 COORDINATES OF ALL ATOMS ARE (ANGS)
   ATOM   CHARGE       X              Y              Z
 ------------------------------------------------------------
 C           6.0  -2.8097000000   0.0066000000   0.0042000000
 C           6.0  -2.3607000000  -1.2359000000  -0.4000000000
 C           6.0  -1.6597000000   0.2929000000  -1.8515000000
 C           6.0  -2.3430000000   0.9683000000  -0.8685000000
 C           6.0   0.3095000000  -2.1919000000  -0.6718000000
 C           6.0  -0.3129000000  -1.5115000000  -1.7598000000
 C           6.0  -1.6314000000  -1.0619000000  -1.5724000000
 C           6.0  -1.6275000000   1.8772000000  -0.1129000000
 C           6.0  -0.3917000000   0.6723000000  -2.2051000000
 C           6.0   0.3134000000   1.6872000000  -1.5512000000
 C           6.0  -0.3135000000   2.2761000000  -0.4206000000
 C           6.0   0.4233000000  -0.4445000000  -2.3034000000
 C           6.0  -1.6944000000   1.4593000000   1.2116000000
 C           6.0  -2.3851000000   0.2696000000   1.2861000000
 C           6.0  -1.6499000000  -0.8284000000   1.7075000000
 C           6.0  -0.4154000000   1.5812000000   1.6984000000
 C           6.0   0.3076000000   0.5102000000   2.2451000000
 C           6.0  -0.3288000000  -0.7638000000   2.1974000000
 C           6.0   0.4080000000   2.2174000000   0.7779000000
 C           6.0  -0.4041000000  -2.2481000000   0.5371000000
 C           6.0  -1.6751000000  -1.7656000000   0.6629000000
 C           6.0   1.6519000000  -1.5686000000   1.0228000000
 C           6.0   0.4013000000  -1.7605000000   1.5368000000
 C           6.0   2.3401000000  -0.3936000000   1.2029000000
 C           6.0   1.6121000000   0.6582000000   1.7496000000
 C           6.0   2.8243000000  -0.0111000000  -0.0234000000
 C           6.0   2.3591000000   1.2740000000  -0.2510000000
 C           6.0   1.6833000000   1.7211000000   0.8552000000
 C           6.0   1.6223000000   1.1757000000  -1.4309000000
 C           6.0   1.6407000000  -1.8451000000  -0.3425000000
 C           6.0   2.3985000000  -0.8797000000  -1.0088000000
 C           6.0   1.7024000000  -0.1310000000  -1.9193000000

          ********************
          1 ELECTRON INTEGRALS
          ********************

          **************************
          1 AND 2 ELECTRON INTEGRALS
          **************************

 MOPAC ONE- AND TWO-ELECTRON INTEGRALS REQUIRE     66112 WORDS.
 ...... END OF ONE- AND TWO-ELECTRON INTEGRALS......
 CPU     0: STEP CPU TIME=     0.02 TOTAL CPU TIME=          0.0 (      0.0 MIN)
 TOTAL WALL CLOCK TIME=          0.0 SECONDS, CPU UTILIZATION IS    97.66%
 ...... END OF ONE-ELECTRON INTEGRALS ......
 CPU     0: STEP CPU TIME=     0.00 TOTAL CPU TIME=          0.0 (      0.0 MIN)
 TOTAL WALL CLOCK TIME=          0.0 SECONDS, CPU UTILIZATION IS    97.66%

          -------------
          GUESS OPTIONS
          -------------
          GUESS =HUCKEL            NORB  =       0          NORDER=       0
          MIX   =       F          PRTMO =       F          PUNMO =       F
          TOLZ  = 1.0E-08          TOLE  = 1.0E-05
          SYMDEN=       F          PURIFY=       F

 INITIAL GUESS ORBITALS GENERATED BY HUCKEL   ROUTINE.

 SYMMETRIES FOR INITIAL GUESS ORBITALS FOLLOW.   BOTH SET(S).
    64 ORBITALS ARE OCCUPIED (    0 CORE ORBITALS).
     1=A        2=A        3=A        4=A        5=A        6=A        7=A   
     8=A        9=A       10=A       11=A       12=A       13=A       14=A   
    15=A       16=A       17=A       18=A       19=A       20=A       21=A   
    22=A       23=A       24=A       25=A       26=A       27=A       28=A   
    29=A       30=A       31=A       32=A       33=A       34=A       35=A   
    36=A       37=A       38=A       39=A       40=A       41=A       42=A   
    43=A       44=A       45=A       46=A       47=A       48=A       49=A   
    50=A       51=A       52=A       53=A       54=A       55=A       56=A   
    57=A       58=A       59=A       60=A       61=A       62=A       63=A   
    64=A       65=A       66=A       67=A       68=A       69=A       70=A   
    71=A       72=A       73=A       74=A   
 ...... END OF INITIAL ORBITAL SELECTION ......
 CPU     0: STEP CPU TIME=     0.00 TOTAL CPU TIME=          0.0 (      0.0 MIN)
 TOTAL WALL CLOCK TIME=          0.1 SECONDS, CPU UTILIZATION IS    74.40%

          --------------------------
               R-PM3 SCF CALCULATION
          --------------------------

     NUCLEAR ENERGY =      1257.0253093042
     MAXIT =  200     NPUNCH=    2
     EXTRAP=T  DAMP=F  SHIFT=F  RSTRCT=F  DIIS=F  DEM=F  SOSCF=T
     DENSITY MATRIX CONV=  2.00E-05
     SOSCF WILL OPTIMIZE    4096 ORBITAL ROTATIONS, SOGTOL=   0.250
     MEMORY REQUIRED FOR RHF ITERS=    182976 WORDS.

                                                                                   NONZERO     BLOCKS
 ITER EX DEM     TOTAL ENERGY        E CHANGE  DENSITY CHANGE     ORB. GRAD      INTEGRALS    SKIPPED
   1  0  0     -136.8886614610  -136.8886614610   0.174190329   0.000000000              0          0
          ---------------START SECOND ORDER SCF---------------
   2  1  0     -137.8711657846    -0.9825043236   0.050554277   0.027474731              0          0
   3  2  0     -137.9485048064    -0.0773390218   0.025056726   0.007593427              0          0
   4  3  0     -137.9575306900    -0.0090258835   0.030004678   0.006362108              0          0
   5  4  0     -137.9583331137    -0.0008024238   0.011719321   0.004360898              0          0
   6  5  0     -137.9591114871    -0.0007783734   0.003847944   0.001307554              0          0
   7  6  0     -137.9592404603    -0.0001289731   0.003445251   0.000542553              0          0
   8  7  0     -137.9592780503    -0.0000375900   0.000656208   0.000206657              0          0
   9  8  0     -137.9592804280    -0.0000023778   0.000448156   0.000085346              0          0
  10  9  0     -137.9592812053    -0.0000007773   0.000295785   0.000044157              0          0
  11 10  0     -137.9592814513    -0.0000002460   0.000232998   0.000031413              0          0
  12 11  0     -137.9592815387    -0.0000000873   0.000237612   0.000021824              0          0
  13 12  0     -137.9592815930    -0.0000000543   0.000140998   0.000012237              0          0
  14 13  0     -137.9592816150    -0.0000000220   0.000045444   0.000005055              0          0
  15 14  0     -137.9592816197    -0.0000000047   0.000016276   0.000003649              0          0
  16 15  0     -137.9592816209    -0.0000000012   0.000016278   0.000002389              0          0

          -----------------
          DENSITY CONVERGED
          -----------------
     TIME TO FORM FOCK OPERATORS=       0.0 SECONDS (       0.0 SEC/ITER)
     FOCK TIME ON FIRST ITERATION=       0.0, LAST ITERATION=       0.0
     TIME TO SOLVE SCF EQUATIONS=       0.1 SECONDS (       0.0 SEC/ITER)

 FINAL R-PM3 ENERGY IS     -137.9592816209 AFTER  16 ITERATIONS

 HEAT OF FORMATION IS       977.52005 KCAL/MOL
 

          ------------
          EIGENVECTORS
          ------------

                      1          2          3          4          5
                   -1.9479    -1.7448    -1.6404    -1.6390    -1.4105
                     A          A          A          A          A   
    1  C  1  S    0.183736  -0.281610  -0.001865  -0.001726   0.309469
    2  C  1  X    0.057251  -0.078809  -0.000702  -0.000891   0.064401
    3  C  1  Y    0.000088  -0.000288   0.038147  -0.039973   0.002405
    4  C  1  Z    0.000562  -0.001339   0.040136   0.038188   0.006812
    5  C  2  S    0.173828  -0.234917  -0.116194   0.064758   0.180268
    6  C  2  X    0.037658  -0.032124  -0.040896   0.024010  -0.019633
    7  C  2  Y    0.037532  -0.063745  -0.003733  -0.022480   0.083570
    8  C  2  Z    0.013149  -0.022087   0.027030   0.051914   0.031805
    9  C  3  S    0.174933  -0.173661  -0.162044  -0.182157  -0.003376
   10  C  3  X    0.023380   0.013654  -0.044057  -0.048484  -0.089388
   11  C  3  Y   -0.012666   0.014762   0.049715  -0.014827  -0.000819
   12  C  3  Z    0.041659  -0.060049  -0.005810  -0.019871   0.058423
   13  C  4  S    0.175210  -0.236451  -0.002164  -0.134343   0.183482
   14  C  4  X    0.037275  -0.031130  -0.001086  -0.047576  -0.020744
   15  C  4  Y   -0.030185   0.050512   0.041368  -0.001790  -0.062544
   16  C  4  Z    0.026848  -0.046072   0.047084   0.007336   0.065247
   17  C  5  S    0.158529   0.037017  -0.209186   0.154864  -0.161664
   18  C  5  X   -0.000844   0.046612   0.006687   0.001104   0.024092
   19  C  5  Y    0.038380   0.011195  -0.048813   0.010342  -0.023715
   20  C  5  Z    0.019337   0.007773   0.003719   0.078406  -0.020725
   21  C  6  S    0.157687  -0.032953  -0.259664  -0.040330  -0.170589
   22  C  6  X    0.000591   0.046081  -0.004234   0.003675  -0.016336
   23  C  6  Y    0.034035  -0.011179  -0.052616  -0.057258  -0.033134
   24  C  6  Z    0.027549  -0.006730  -0.030971   0.039423  -0.013524
   25  C  7  S    0.170963  -0.168855  -0.218306  -0.062133  -0.005024
   26  C  7  X    0.020346   0.015844  -0.052222  -0.017304  -0.085872
   27  C  7  Y    0.031146  -0.039612  -0.023896  -0.052277   0.021509
   28  C  7  Z    0.031988  -0.047021  -0.014273   0.029788   0.049991
   29  C  8  S    0.173310  -0.173621   0.161592  -0.158445   0.017721
   30  C  8  X    0.019653   0.016892   0.040950  -0.036336  -0.086880
   31  C  8  Y   -0.043111   0.061045  -0.010283   0.019889  -0.058916
   32  C  8  Z    0.010467  -0.010706   0.058754   0.019775  -0.000329
   33  C  9  S    0.169882  -0.036050  -0.181456  -0.257962  -0.191969
   34  C  9  X    0.007346   0.051165  -0.011332  -0.022810  -0.034557
   35  C  9  Y   -0.020230   0.009137   0.065418   0.008232   0.023507
   36  C  9  Z    0.039626  -0.013753  -0.017066  -0.051946  -0.023935
   37  C 10  S    0.158569   0.036175  -0.026225  -0.258514  -0.166728
   38  C 10  X   -0.001379   0.046127  -0.003877   0.006201   0.022311
   39  C 10  Y   -0.036496  -0.013052   0.051422   0.055822   0.031353
   40  C 10  Z    0.023527   0.004963   0.048743  -0.022939  -0.010534
   41  C 11  S    0.158544  -0.035457   0.165282  -0.205766  -0.165118
   42  C 11  X    0.000715   0.045967   0.000370  -0.005684  -0.023104
   43  C 11  Y   -0.041040   0.011841  -0.021663   0.048940   0.027252
   44  C 11  Z    0.015776  -0.006834   0.075234   0.008705  -0.018354
   45  C 12  S    0.167090   0.043602  -0.251849  -0.186069  -0.182943
   46  C 12  X   -0.007596   0.049862   0.023485   0.012650   0.044802
   47  C 12  Y    0.015504   0.008368  -0.001244  -0.059951  -0.018531
   48  C 12  Z    0.042494   0.016137  -0.053945  -0.028239  -0.026409
   49  C 13  S    0.173078  -0.176688   0.231911  -0.046480   0.028512
   50  C 13  X    0.023790   0.011506   0.064283  -0.013985  -0.086143
   51  C 13  Y   -0.029952   0.045132  -0.010874  -0.029029  -0.052887
   52  C 13  Z   -0.032410   0.044008  -0.020930   0.040200  -0.035337
   53  C 14  S    0.172840  -0.236342   0.110599   0.064672   0.201675
   54  C 14  X    0.038229  -0.034141   0.040473   0.023043  -0.012424
   55  C 14  Y   -0.007226   0.012584   0.035090  -0.048948  -0.016531
   56  C 14  Z   -0.039357   0.066602  -0.000473   0.012772  -0.088466
   57  C 15  S    0.170502  -0.171626   0.053448   0.217053   0.019620
   58  C 15  X    0.020125   0.015536   0.011079   0.054667  -0.086070
   59  C 15  Y    0.012678  -0.022056   0.044950  -0.025645   0.035436
   60  C 15  Z   -0.042372   0.057613   0.013042  -0.037219  -0.048432
   61  C 16  S    0.169292  -0.040826   0.312298  -0.027831  -0.178885
   62  C 16  X    0.007517   0.050811   0.027418   0.001683  -0.044790
   63  C 16  Y   -0.024157   0.007694  -0.026322  -0.035635   0.008568
   64  C 16  Z   -0.037332   0.015893  -0.060861   0.039764   0.027964
   65  C 17  S    0.158578   0.034219   0.239072   0.106527  -0.169530
   66  C 17  X   -0.001108   0.046068  -0.001648  -0.006499   0.016428
   67  C 17  Y   -0.002025   0.001825   0.040953  -0.054879  -0.006740
   68  C 17  Z   -0.043334  -0.013498  -0.062330  -0.012323   0.033069
   69  C 18  S    0.157476  -0.036701   0.095094   0.246209  -0.164300
   70  C 18  X    0.000958   0.045208   0.006311   0.003285  -0.025070
   71  C 18  Y    0.006854  -0.000361   0.054381  -0.031146   0.003988
   72  C 18  Z   -0.043468   0.013681  -0.004744  -0.068661   0.033405
   73  C 19  S    0.167490   0.038903   0.289521  -0.124780  -0.186876
   74  C 19  X   -0.007694   0.049785  -0.021322   0.014349   0.033900
   75  C 19  Y   -0.044681  -0.017238  -0.071486   0.013644   0.033962
   76  C 19  Z   -0.008074  -0.000567   0.019173   0.041907  -0.002051
   77  C 20  S    0.169958  -0.038231  -0.131513   0.289807  -0.184999
   78  C 20  X    0.007364   0.050729  -0.013315   0.022263  -0.037457
   79  C 20  Y    0.044706  -0.016855  -0.018574   0.067119  -0.031004
   80  C 20  Z   -0.002188  -0.001475   0.039715   0.032477  -0.007661
   81  C 21  S    0.173484  -0.173765  -0.079493   0.228049   0.011262
   82  C 21  X    0.023564   0.012898  -0.020105   0.063575  -0.087990
   83  C 21  Y    0.042252  -0.059469   0.004916   0.029560   0.055048
   84  C 21  Z   -0.009753   0.016762   0.039336   0.023885  -0.024191
   85  C 22  S    0.173770   0.174723  -0.051991   0.236443   0.008733
   86  C 22  X   -0.023404   0.013912   0.015092  -0.065257   0.089671
   87  C 22  Y    0.032395   0.048558   0.024740   0.013150   0.051505
   88  C 22  Z   -0.027896  -0.038704   0.043124  -0.015769  -0.032320
   89  C 23  S    0.168074   0.038244  -0.034266   0.315915  -0.186933
   90  C 23  X   -0.008490   0.049065  -0.000219  -0.028411   0.037639
   91  C 23  Y    0.028883   0.008939   0.028787   0.036756  -0.015004
   92  C 23  Z   -0.035301  -0.015187   0.043464  -0.059205   0.029467
   93  C 24  S    0.175071   0.239361   0.062998   0.114720   0.183856
   94  C 24  X   -0.036785  -0.030613  -0.021733  -0.041936   0.022617
   95  C 24  Y    0.011298   0.019876   0.049814  -0.035387   0.024337
   96  C 24  Z   -0.037741  -0.065366   0.018842  -0.002041  -0.088163
   97  C 25  S    0.172411   0.171802   0.219716   0.059492  -0.003920
   98  C 25  X   -0.019817   0.017221  -0.052843  -0.012939   0.086858
   99  C 25  Y   -0.007220  -0.014285   0.032402  -0.047271  -0.027028
  100  C 25  Z   -0.042772  -0.059351  -0.034459   0.008404  -0.048139
  101  C 26  S    0.180636   0.281658  -0.001791  -0.000839   0.310159
  102  C 26  X   -0.057117  -0.080230   0.000298  -0.000089  -0.066321
  103  C 26  Y    0.000068  -0.000030   0.036702  -0.039257  -0.002805
  104  C 26  Z    0.000190  -0.000036   0.041010   0.035451  -0.003295
  105  C 27  S    0.172585   0.237105   0.073828  -0.108352   0.184051
  106  C 27  X   -0.037146  -0.031990  -0.027105   0.038589   0.019842
  107  C 27  Y   -0.038382  -0.066531   0.016542   0.000164  -0.089510
  108  C 27  Z    0.008863   0.013893   0.053463   0.027871   0.012078
  109  C 28  S    0.170268   0.172055   0.231122  -0.071725  -0.001941
  110  C 28  X   -0.024520   0.010800  -0.063889   0.019006   0.085937
  111  C 28  Y   -0.041624  -0.058196  -0.034625  -0.009286  -0.047280
  112  C 28  Z   -0.014317  -0.023253   0.016253   0.037040  -0.031505
  113  C 29  S    0.172843   0.176032  -0.055597  -0.214925   0.015802
  114  C 29  X   -0.019030   0.018028   0.015353   0.051558   0.088859
  115  C 29  Y   -0.032723  -0.044287   0.049723   0.022145  -0.033882
  116  C 29  Z    0.027552   0.042240   0.038561  -0.007793   0.048377
  117  C 30  S    0.170459   0.174810  -0.158704   0.151574   0.023679
  118  C 30  X   -0.019632   0.016263   0.036686  -0.039970   0.086526
  119  C 30  Y    0.041182   0.059795  -0.021612   0.002969   0.059976
  120  C 30  Z    0.014837   0.016249   0.015917   0.060786  -0.000038
  121  C 31  S    0.169438   0.235902  -0.130549  -0.007676   0.200120
  122  C 31  X   -0.038365  -0.035523   0.047231   0.003303   0.011292
  123  C 31  Y    0.027424   0.046538   0.000338  -0.042214   0.059755
  124  C 31  Z    0.028694   0.049587   0.006555   0.040309   0.066827
  125  C 32  S    0.169929   0.176796  -0.176541  -0.158359   0.023650
  126  C 32  X   -0.023860   0.010700   0.047522   0.045366   0.086925
  127  C 32  Y    0.007575   0.007834   0.016844  -0.044281  -0.003635
  128  C 32  Z    0.043379   0.062952  -0.020141  -0.012433   0.062491

                      6          7          8          9         10
                   -1.3581    -1.3524    -1.2564    -1.2523    -1.0995
                     A          A          A          A          A   
    1  C  1  S    0.014687  -0.001101   0.003842  -0.003471  -0.111749
    2  C  1  X    0.003404  -0.001283   0.001413  -0.000957  -0.010348
    3  C  1  Y   -0.080320  -0.086449  -0.009935  -0.056243  -0.097673
    4  C  1  Z   -0.087323   0.080725  -0.051704   0.014689  -0.153629
    5  C  2  S    0.207979   0.095892   0.054894   0.169718   0.167887
    6  C  2  X    0.047434   0.018271   0.011976   0.059507   0.037625
    7  C  2  Y    0.025601  -0.026402  -0.005699  -0.039441   0.010744
    8  C  2  Z   -0.058695   0.100268   0.015468   0.013529  -0.077499
    9  C  3  S    0.216416  -0.179621   0.036975  -0.194683   0.168702
   10  C  3  X    0.009289   0.009624  -0.031476  -0.049525  -0.059158
   11  C  3  Y   -0.087347  -0.008157   0.076198  -0.060834  -0.034808
   12  C  3  Z    0.022093  -0.045459   0.042824  -0.008212   0.052569
   13  C  4  S   -0.002945  -0.220561   0.119934  -0.142447   0.022149
   14  C  4  X   -0.007493  -0.049664   0.044363  -0.041454   0.033765
   15  C  4  Y   -0.088333   0.000958   0.013905   0.003756  -0.060825
   16  C  4  Z   -0.084881  -0.008472  -0.022114   0.028054  -0.123770
   17  C  5  S   -0.067183  -0.143972  -0.003577   0.304038  -0.205125
   18  C  5  X   -0.073134  -0.054091  -0.019680  -0.036827   0.001590
   19  C  5  Y   -0.006642  -0.020888  -0.040132   0.040554  -0.021078
   20  C  5  Z   -0.034048  -0.023766   0.115206  -0.011377  -0.007759
   21  C  6  S    0.124421  -0.076150  -0.226290   0.203333  -0.150767
   22  C  6  X   -0.092654   0.005346  -0.038910   0.011238  -0.076211
   23  C  6  Y    0.040969  -0.001672  -0.064956  -0.060399  -0.004775
   24  C  6  Z    0.001389  -0.016179   0.024111   0.090921  -0.014501
   25  C  7  S    0.308462  -0.090721  -0.073547   0.099570   0.172457
   26  C  7  X    0.010626  -0.011639  -0.069212   0.022737  -0.091551
   27  C  7  Y    0.048564  -0.047509   0.002215  -0.092273   0.057165
   28  C  7  Z    0.033450   0.020358   0.040701   0.066383   0.055817
   29  C  8  S   -0.230790  -0.223364   0.123003   0.004067  -0.013043
   30  C  8  X   -0.019802  -0.006222   0.052192   0.050773   0.103096
   31  C  8  Y    0.025396   0.039053   0.007189   0.040773   0.059160
   32  C  8  Z   -0.059646   0.004907  -0.089930   0.072874  -0.037367
   33  C  9  S    0.047683   0.013314   0.011028  -0.274731  -0.085838
   34  C  9  X   -0.074211   0.104361  -0.020234   0.001697  -0.087730
   35  C  9  Y   -0.061524   0.015752   0.124327  -0.010825   0.025681
   36  C  9  Z   -0.001533  -0.009095   0.048352  -0.037924   0.011112
   37  C 10  S   -0.092328   0.128283   0.270237  -0.144802  -0.061071
   38  C 10  X   -0.006669   0.089608  -0.020471   0.037630  -0.036333
   39  C 10  Y    0.011845  -0.046572   0.026296   0.074303   0.043895
   40  C 10  Z   -0.009867  -0.009634   0.081706   0.061049   0.035821
   41  C 11  S   -0.135513  -0.077913   0.288053   0.095311   0.122948
   42  C 11  X    0.049664   0.076541   0.029788   0.032352  -0.023189
   43  C 11  Y    0.023871   0.011974  -0.048459   0.015045  -0.003729
   44  C 11  Z   -0.016483  -0.035863  -0.051932   0.109435   0.053600
   45  C 12  S   -0.019825   0.074154  -0.263910  -0.066681  -0.173789
   46  C 12  X   -0.104306   0.063485  -0.000789   0.025907   0.033190
   47  C 12  Y   -0.021868   0.064270   0.051540  -0.112256  -0.006236
   48  C 12  Z   -0.013816   0.007801  -0.045138   0.018982  -0.018131
   49  C 13  S   -0.267391  -0.092906  -0.182802   0.055591  -0.118019
   50  C 13  X   -0.008288  -0.017919  -0.031609   0.052308   0.136259
   51  C 13  Y    0.022748  -0.046387   0.064536   0.045503   0.096879
   52  C 13  Z    0.053164   0.066259  -0.061298  -0.011620   0.040900
   53  C 14  S   -0.175582   0.123034  -0.165860  -0.032018  -0.298483
   54  C 14  X   -0.042956   0.032424  -0.056486  -0.016920   0.002588
   55  C 14  Y   -0.055145  -0.103795  -0.029527  -0.004006  -0.045761
   56  C 14  Z    0.013316   0.023275  -0.023622  -0.012981   0.073112
   57  C 15  S   -0.077839   0.312868  -0.054032  -0.098894   0.004657
   58  C 15  X   -0.002025   0.020214   0.013717  -0.069910   0.096296
   59  C 15  Y   -0.039097  -0.018377  -0.103819  -0.023583  -0.073635
   60  C 15  Z   -0.002539  -0.061885  -0.028473  -0.044975   0.031422
   61  C 16  S   -0.041988  -0.053230  -0.250651   0.127893   0.177546
   62  C 16  X    0.122519   0.011325   0.005410   0.019835   0.035954
   63  C 16  Y   -0.013308  -0.029702   0.084142   0.070148   0.001669
   64  C 16  Z    0.044914   0.039354  -0.032837  -0.076336  -0.023474
   65  C 17  S    0.135754   0.017726  -0.272110  -0.159375   0.138386
   66  C 17  X    0.084213  -0.037786   0.040163  -0.001426  -0.067332
   67  C 17  Y    0.022649  -0.019930  -0.036210   0.118813  -0.004175
   68  C 17  Z   -0.034649   0.005170   0.039447  -0.002215  -0.010935
   69  C 18  S   -0.014443   0.158613  -0.070023  -0.293038   0.171235
   70  C 18  X    0.039792  -0.080227   0.008924  -0.045145   0.001095
   71  C 18  Y    0.017428  -0.013178  -0.121497  -0.009106   0.011338
   72  C 18  Z    0.011730  -0.038630  -0.027322   0.034515  -0.016622
   73  C 19  S    0.052998  -0.030697   0.064046   0.268038   0.113924
   74  C 19  X    0.111071   0.060012   0.021768  -0.010076  -0.105745
   75  C 19  Y   -0.040803   0.000493   0.029535  -0.032034  -0.005003
   76  C 19  Z    0.046569  -0.013476  -0.129618  -0.006424   0.011963
   77  C 20  S   -0.037975   0.047452   0.233088   0.149010  -0.048987
   78  C 20  X   -0.053611  -0.115183   0.013220  -0.023247  -0.084539
   79  C 20  Y   -0.002465   0.035475   0.034236  -0.004128   0.018278
   80  C 20  Z   -0.021662   0.054256   0.039965  -0.125663   0.065617
   81  C 21  S    0.055244   0.274721   0.142382   0.143637   0.084715
   82  C 21  X   -0.017571   0.008843   0.058861   0.000522   0.014840
   83  C 21  Y    0.003643   0.068162  -0.019191  -0.009818  -0.002761
   84  C 21  Z   -0.061543   0.043663  -0.003477  -0.099470  -0.015003
   85  C 22  S   -0.075004  -0.276964   0.103411  -0.159116  -0.044606
   86  C 22  X    0.019668   0.002553  -0.057610   0.011680   0.045583
   87  C 22  Y    0.041054  -0.025388  -0.026314  -0.071930   0.013325
   88  C 22  Z    0.061476   0.058487   0.003539  -0.074872  -0.017522
   89  C 23  S   -0.062078  -0.034601   0.190514  -0.195310   0.010703
   90  C 23  X    0.000977  -0.123716  -0.020164  -0.016456  -0.065080
   91  C 23  Y    0.019569   0.013492  -0.033327  -0.094616   0.044522
   92  C 23  Z    0.036549   0.052172  -0.068853  -0.062186   0.061136
   93  C 24  S    0.137635  -0.175063   0.013352  -0.180901  -0.105710
   94  C 24  X   -0.031041   0.037672   0.003208   0.060440   0.031437
   95  C 24  Y    0.099723   0.062790  -0.005869   0.028804  -0.090739
   96  C 24  Z    0.029128   0.025394  -0.010019  -0.025502  -0.048501
   97  C 25  S    0.312994  -0.049093  -0.096994  -0.092706  -0.164977
   98  C 25  X   -0.010995  -0.005157   0.075890   0.006208  -0.089738
   99  C 25  Y    0.026322   0.041103  -0.004338   0.113985  -0.006390
  100  C 25  Z   -0.062673  -0.000046  -0.036518  -0.026798   0.079609
  101  C 26  S    0.009752  -0.002669   0.004920  -0.002884   0.116874
  102  C 26  X   -0.002613   0.001174  -0.001478   0.001425  -0.011262
  103  C 26  Y    0.072217   0.091795   0.046513   0.026058  -0.104905
  104  C 26  Z    0.092982  -0.069517   0.029187  -0.047004  -0.143554
  105  C 27  S    0.104856   0.194611   0.152625   0.096338  -0.094063
  106  C 27  X   -0.019078  -0.046821  -0.052608  -0.029481   0.038999
  107  C 27  Y    0.013580  -0.012932   0.029097   0.017377  -0.056712
  108  C 27  Z    0.107748  -0.054758   0.004568   0.012181  -0.117308
  109  C 28  S    0.279134   0.069818   0.081951   0.168031  -0.196780
  110  C 28  X   -0.009427   0.011867   0.020416  -0.058737  -0.069834
  111  C 28  Y   -0.077364  -0.001458   0.013676   0.027094   0.073022
  112  C 28  Z    0.031104  -0.052124  -0.095438  -0.030570   0.017015
  113  C 29  S   -0.109159   0.300065   0.125257  -0.029299  -0.010506
  114  C 29  X    0.016354  -0.013984  -0.040925   0.058055   0.071334
  115  C 29  Y    0.050942  -0.043136   0.084052   0.014636  -0.054183
  116  C 29  Z    0.033799   0.020262   0.063167   0.058303   0.004152
  117  C 30  S   -0.199643  -0.248353  -0.034610   0.122657   0.015006
  118  C 30  X    0.007027   0.021244  -0.029340  -0.063890   0.123808
  119  C 30  Y   -0.035633  -0.022396  -0.041830  -0.011038   0.083339
  120  C 30  Z    0.006399  -0.065381   0.087407  -0.064768  -0.031400
  121  C 31  S   -0.211230  -0.022932  -0.155591   0.079415   0.308462
  122  C 31  X    0.052794   0.008288   0.052124  -0.031808   0.002543
  123  C 31  Y   -0.007768   0.089303   0.000809  -0.010409   0.065483
  124  C 31  Z    0.001993  -0.078102   0.032181  -0.016518   0.031438
  125  C 32  S   -0.203884   0.204348  -0.186709  -0.003711   0.097146
  126  C 32  X    0.000846  -0.021370   0.040008   0.042476   0.124537
  127  C 32  Y    0.007850   0.081364   0.077183  -0.055776  -0.027942
  128  C 32  Z   -0.045183   0.024796  -0.010358   0.032088   0.091864

                     11         12         13         14         15
                   -1.0944    -1.0933    -1.0155    -1.0152    -0.9787
                     A          A          A          A          A   
    1  C  1  S    0.261732   0.111927  -0.002386  -0.001314  -0.029579
    2  C  1  X    0.027384   0.013666   0.000947  -0.000185   0.001254
    3  C  1  Y   -0.099436   0.135403   0.037445   0.038530   0.004536
    4  C  1  Z   -0.013000  -0.122936  -0.026320   0.035208  -0.001705
    5  C  2  S    0.232512  -0.103270   0.031028  -0.222097   0.028914
    6  C  2  X   -0.049095  -0.034538   0.028715  -0.064845   0.031323
    7  C  2  Y    0.092297   0.062854  -0.064111   0.029749  -0.026544
    8  C  2  Z    0.056025  -0.107007   0.087367   0.075280  -0.035655
    9  C  3  S   -0.104749   0.071228  -0.138174   0.197069  -0.111279
   10  C  3  X   -0.077126  -0.119492  -0.031282   0.045486  -0.047654
   11  C  3  Y    0.016889   0.020981   0.118613   0.113878   0.049024
   12  C  3  Z    0.037589   0.088540   0.030944   0.002427   0.041593
   13  C  4  S   -0.000538   0.307029   0.160791   0.144347   0.035811
   14  C  4  X   -0.061448  -0.009957   0.042397   0.058092   0.029932
   15  C  4  Y   -0.094844  -0.055028   0.098270   0.009582   0.050033
   16  C  4  Z    0.006719   0.041875   0.064979  -0.069705   0.007543
   17  C  5  S    0.001145   0.130711  -0.007467   0.062900   0.262488
   18  C  5  X    0.103012   0.012536  -0.066880   0.121551  -0.032389
   19  C  5  Y   -0.007567  -0.002499   0.009281   0.021513   0.050584
   20  C  5  Z    0.038374   0.052794  -0.047835  -0.018380  -0.121985
   21  C  6  S   -0.194754  -0.044310  -0.011173  -0.043700   0.205918
   22  C  6  X    0.060162   0.037723   0.095659   0.100212   0.018891
   23  C  6  Y   -0.040046  -0.044686  -0.031032   0.014271  -0.120145
   24  C  6  Z    0.003339   0.031589   0.015811  -0.030369   0.125602
   25  C  7  S   -0.097968  -0.020917  -0.191179  -0.192735   0.044473
   26  C  7  X   -0.126998  -0.057783  -0.013269   0.022775   0.030749
   27  C  7  Y    0.001597   0.041686  -0.075353   0.088014  -0.106751
   28  C  7  Z    0.079779   0.008739   0.044683  -0.092193   0.058512
   29  C  8  S   -0.194796   0.039242   0.267122  -0.058527   0.061270
   30  C  8  X   -0.011936  -0.131625  -0.007956  -0.025917   0.025737
   31  C  8  Y    0.011044  -0.089235  -0.024937  -0.024029  -0.001312
   32  C  8  Z   -0.040757  -0.028147  -0.061993  -0.142921  -0.117193
   33  C  9  S   -0.007889  -0.170749  -0.023938   0.116632  -0.141139
   34  C  9  X    0.117928  -0.020633   0.069038  -0.135731  -0.004477
   35  C  9  Y    0.080500   0.002118   0.035495   0.003812   0.151589
   36  C  9  Z    0.009538  -0.017571  -0.000567   0.028904   0.055842
   37  C 10  S    0.179572  -0.157167  -0.063532  -0.032564   0.255096
   38  C 10  X    0.053775   0.077966  -0.079434  -0.115962  -0.027880
   39  C 10  Y   -0.038351   0.001029  -0.018696   0.036850   0.072520
   40  C 10  Z   -0.010011  -0.019389  -0.041076   0.022465   0.100413
   41  C 11  S   -0.003172  -0.215452   0.053122   0.021068   0.196184
   42  C 11  X    0.098679  -0.011123  -0.137433   0.033465   0.009705
   43  C 11  Y   -0.002988   0.022709  -0.016698  -0.010135  -0.048597
   44  C 11  Z   -0.035295  -0.005556   0.001617  -0.051411  -0.163698
   45  C 12  S    0.006266  -0.060488   0.151553  -0.006619  -0.194518
   46  C 12  X    0.125030   0.088329   0.135524  -0.038436   0.011808
   47  C 12  Y    0.076427  -0.025458   0.003089  -0.055547  -0.114850
   48  C 12  Z    0.000706   0.008383   0.026616   0.005813   0.025284
   49  C 13  S   -0.193288  -0.013579  -0.100446  -0.217696  -0.098705
   50  C 13  X   -0.023286  -0.054023  -0.020809  -0.065749  -0.046333
   51  C 13  Y   -0.015896  -0.011381   0.095200  -0.052478  -0.052983
   52  C 13  Z    0.036209  -0.035638  -0.127489   0.023179   0.015420
   53  C 14  S    0.030738  -0.096351  -0.195371   0.078529   0.017408
   54  C 14  X   -0.063362  -0.032810  -0.070128   0.009944   0.025063
   55  C 14  Y   -0.087730   0.110701  -0.001867  -0.110624  -0.018415
   56  C 14  Z   -0.071421  -0.045674  -0.064077   0.022427   0.034075
   57  C 15  S   -0.094273  -0.183124  -0.076096   0.265281   0.041846
   58  C 15  X   -0.106410   0.082952   0.021550   0.014083   0.030567
   59  C 15  Y    0.023257  -0.006492  -0.149052  -0.005548   0.090381
   60  C 15  Z   -0.047281   0.076290  -0.053373  -0.011990   0.057292
   61  C 16  S    0.027362  -0.006120  -0.096845  -0.107643  -0.136668
   62  C 16  X    0.141558   0.053044   0.075728   0.125157  -0.007553
   63  C 16  Y   -0.009828  -0.046743   0.042138  -0.006800  -0.122818
   64  C 16  Z    0.029772   0.051042  -0.016041   0.038174   0.101847
   65  C 17  S    0.136842   0.145042   0.033197  -0.034263   0.263775
   66  C 17  X    0.075360   0.007777   0.142655  -0.008364  -0.022859
   67  C 17  Y    0.059941  -0.009296   0.009643   0.045059  -0.126429
   68  C 17  Z   -0.031590  -0.014408  -0.018730  -0.003930   0.013305
   69  C 18  S   -0.127720   0.114643  -0.056563   0.057614   0.199926
   70  C 18  X    0.073779   0.071982   0.036464  -0.134042   0.021580
   71  C 18  Y    0.053372  -0.004065  -0.055403  -0.018296   0.162234
   72  C 18  Z    0.035217  -0.011825  -0.009154  -0.021373   0.040078
   73  C 19  S    0.127809  -0.065768  -0.058766   0.119260  -0.208349
   74  C 19  X    0.065382   0.086369  -0.038274   0.144882   0.004256
   75  C 19  Y   -0.037115  -0.022536  -0.004900  -0.029470   0.035126
   76  C 19  Z    0.033518   0.063129   0.044041   0.005103  -0.106195
   77  C 20  S   -0.122352   0.133788   0.131437  -0.033450  -0.131419
   78  C 20  X    0.066744   0.105703  -0.153310   0.003495  -0.017816
   79  C 20  Y   -0.030540   0.003818   0.029589   0.006741  -0.027338
   80  C 20  Z   -0.034769   0.012617   0.004547   0.046563  -0.159132
   81  C 21  S   -0.025549  -0.193495   0.250028   0.007503  -0.088061
   82  C 21  X   -0.128899   0.080133   0.061967   0.015675  -0.041838
   83  C 21  Y    0.058245  -0.076441  -0.032570   0.047761   0.007505
   84  C 21  Z   -0.065526   0.005040  -0.022200   0.157903  -0.063792
   85  C 22  S    0.182669  -0.121192  -0.173895  -0.154823  -0.133728
   86  C 22  X   -0.021165  -0.145304   0.053332   0.033739   0.056913
   87  C 22  Y   -0.014402  -0.100248   0.070034  -0.066397   0.044638
   88  C 22  Z   -0.037632   0.041522   0.061875  -0.121920  -0.001346
   89  C 23  S   -0.025111   0.184055  -0.068884  -0.107812  -0.199594
   90  C 23  X    0.132355  -0.035574  -0.098741  -0.109340   0.005970
   91  C 23  Y   -0.005004  -0.002733   0.008730  -0.031672   0.080731
   92  C 23  Z   -0.029331  -0.030841   0.038967   0.001521   0.091163
   93  C 24  S   -0.048373  -0.283135   0.137740  -0.176480   0.024545
   94  C 24  X   -0.066449  -0.008803  -0.025397   0.065112  -0.017798
   95  C 24  Y   -0.097865   0.056935   0.105994   0.032496   0.038131
   96  C 24  Z    0.064459   0.080432   0.048241  -0.051917   0.030860
   97  C 25  S    0.094867   0.025281   0.275143  -0.011552   0.079183
   98  C 25  X   -0.115419  -0.079154   0.008089  -0.024119  -0.042838
   99  C 25  Y    0.022960   0.067347  -0.029750   0.150569  -0.097945
  100  C 25  Z    0.054315   0.028398  -0.010768  -0.034448   0.054174
  101  C 26  S   -0.260902  -0.110896  -0.001067  -0.002685  -0.001807
  102  C 26  X    0.029175   0.014025   0.000355   0.002464  -0.002908
  103  C 26  Y   -0.101502   0.128361  -0.026441  -0.047244   0.004767
  104  C 26  Z   -0.013162  -0.127765   0.050101  -0.030140  -0.000499
  105  C 27  S   -0.236664   0.179776  -0.214948  -0.018289   0.023216
  106  C 27  X   -0.047868  -0.036433   0.070188  -0.013630  -0.014143
  107  C 27  Y    0.095480  -0.001448  -0.045585   0.046889   0.001991
  108  C 27  Z   -0.045381  -0.066585   0.069042   0.100129  -0.045320
  109  C 28  S    0.026293   0.099122  -0.032043   0.239407  -0.134118
  110  C 28  X   -0.131505  -0.001817   0.004937  -0.064356   0.060552
  111  C 28  Y    0.052365  -0.007881  -0.074743   0.018163  -0.024971
  112  C 28  Z    0.071912  -0.014956   0.145227   0.014360  -0.033130
  113  C 29  S    0.089305   0.174499  -0.158382  -0.231520   0.071363
  114  C 29  X   -0.120088   0.093878  -0.023541   0.015129  -0.039858
  115  C 29  Y    0.003949  -0.060921  -0.099227   0.042949   0.089934
  116  C 29  Z   -0.082377   0.044710  -0.114657   0.035125   0.054557
  117  C 30  S    0.196775  -0.041799  -0.128972   0.241842   0.066535
  118  C 30  X   -0.013795  -0.109565   0.027914   0.013383  -0.044246
  119  C 30  Y    0.008591  -0.062059   0.027242   0.038029  -0.001609
  120  C 30  Z    0.034821  -0.046256  -0.110792  -0.093748  -0.106542
  121  C 31  S    0.021662  -0.004536   0.079758   0.199384   0.019052
  122  C 31  X   -0.063881  -0.030080  -0.043459  -0.055749  -0.016246
  123  C 31  Y   -0.084723   0.076010   0.017635  -0.093004  -0.037427
  124  C 31  Z   -0.024518  -0.125248  -0.078946   0.030867   0.012586
  125  C 32  S    0.121787   0.172490   0.220553  -0.079308  -0.121383
  126  C 32  X   -0.069013   0.044746  -0.063097   0.035360   0.055863
  127  C 32  Y    0.011244   0.031528  -0.076191  -0.147080  -0.021254
  128  C 32  Z   -0.025682   0.048815  -0.020960   0.021590   0.035255

                     16         17         18         19         20
                   -0.9719    -0.8760    -0.8753    -0.8399    -0.8341
                     A          A          A          A          A   
    1  C  1  S   -0.117062  -0.012699  -0.003126   0.340813  -0.097499
    2  C  1  X   -0.004872   0.002826  -0.002091  -0.008779   0.005486
    3  C  1  Y    0.004088  -0.107432  -0.197844  -0.003664  -0.024101
    4  C  1  Z   -0.000685  -0.204777   0.106392  -0.022953  -0.045168
    5  C  2  S   -0.003080   0.109148   0.081422  -0.024744   0.068540
    6  C  2  X    0.047010  -0.051879  -0.061668  -0.133500   0.031402
    7  C  2  Y   -0.072703   0.107193   0.031882   0.138966  -0.092589
    8  C  2  Z    0.025672  -0.097651   0.154452   0.094006   0.159617
    9  C  3  S    0.129270   0.034621   0.113462  -0.143448  -0.035000
   10  C  3  X    0.055512  -0.158630   0.094685   0.004791   0.013553
   11  C  3  Y    0.107623   0.002781   0.065340   0.038614   0.111891
   12  C  3  Z   -0.007629   0.096974  -0.051077  -0.006418   0.009957
   13  C  4  S    0.013811   0.040144  -0.127184   0.057969   0.166756
   14  C  4  X    0.050410  -0.016534   0.084584  -0.111735   0.077136
   15  C  4  Y    0.016125  -0.138630   0.042313  -0.094795   0.137771
   16  C  4  Z   -0.074592  -0.120720  -0.114737   0.091219   0.020806
   17  C  5  S    0.142615   0.118570   0.085344   0.105070  -0.035852
   18  C  5  X   -0.037595   0.128803   0.089172  -0.056456   0.068559
   19  C  5  Y   -0.046048   0.012484  -0.009469   0.009123   0.028422
   20  C  5  Z    0.146273  -0.001949   0.061146  -0.017724  -0.071788
   21  C  6  S   -0.211462  -0.129327  -0.056194   0.123097   0.060270
   22  C  6  X   -0.042908   0.149037   0.058263   0.109794   0.070443
   23  C  6  Y   -0.079005  -0.047488   0.019265   0.013133   0.035825
   24  C  6  Z    0.068835   0.022652  -0.024164  -0.011451  -0.037665
   25  C  7  S   -0.083528  -0.040026  -0.106744  -0.205968  -0.140552
   26  C  7  X   -0.039905  -0.191213   0.001768   0.046122   0.047273
   27  C  7  Y    0.006029   0.072513   0.052449  -0.014308  -0.049664
   28  C  7  Z    0.029589   0.087583  -0.034597  -0.031778   0.003698
   29  C  8  S   -0.074005  -0.057572   0.071810  -0.109834   0.212878
   30  C  8  X   -0.044549   0.092846   0.169511   0.014321  -0.080458
   31  C  8  Y   -0.032882   0.053816   0.096948   0.012356  -0.051074
   32  C  8  Z   -0.013107   0.037423  -0.056187  -0.024242  -0.057772
   33  C  9  S    0.242659  -0.051654   0.080086   0.079509  -0.002142
   34  C  9  X   -0.022999   0.103611  -0.149451   0.096073   0.001265
   35  C  9  Y    0.108347   0.043817  -0.026691  -0.033119  -0.085403
   36  C  9  Z    0.047107  -0.003594   0.009096  -0.018069  -0.034018
   37  C 10  S    0.138092  -0.001678  -0.144743   0.034196  -0.158990
   38  C 10  X   -0.041870   0.021368  -0.153117  -0.025971   0.093056
   39  C 10  Y   -0.105977  -0.039041   0.037432  -0.016927  -0.043046
   40  C 10  Z   -0.116944  -0.040605   0.016546  -0.014792  -0.045307
   41  C 11  S   -0.217535   0.003464   0.145750   0.044590  -0.168451
   42  C 11  X   -0.048077  -0.032802  -0.151258   0.046167  -0.119898
   43  C 11  Y   -0.021001   0.008280  -0.009987   0.007177   0.006937
   44  C 11  Z   -0.107426   0.053747   0.029477   0.038859   0.043495
   45  C 12  S   -0.188182   0.109017  -0.005948   0.140999   0.118651
   46  C 12  X   -0.023316   0.175540  -0.023014  -0.110370  -0.056553
   47  C 12  Y    0.147762   0.038909  -0.032285  -0.010261  -0.018896
   48  C 12  Z   -0.038923   0.013930  -0.000364   0.001722   0.001618
   49  C 13  S    0.122140   0.070091  -0.089141  -0.192783  -0.061131
   50  C 13  X    0.054044   0.168483   0.087195   0.054252   0.080500
   51  C 13  Y   -0.041372   0.059601   0.053994   0.051887   0.111631
   52  C 13  Z    0.089370   0.091165   0.014756   0.001763  -0.072352
   53  C 14  S    0.002035  -0.147703   0.051732  -0.077061  -0.231029
   54  C 14  X    0.046232   0.081370  -0.015917  -0.129301  -0.004508
   55  C 14  Y    0.053979  -0.032803  -0.193531  -0.074145  -0.079010
   56  C 14  Z    0.050829   0.118346   0.015544  -0.146764   0.008365
   57  C 15  S   -0.069438   0.113262   0.035513  -0.106683   0.061407
   58  C 15  X   -0.039424   0.097898  -0.169498   0.029456   0.010672
   59  C 15  Y    0.021392   0.021226   0.059938  -0.044696  -0.104816
   60  C 15  Z   -0.020138   0.076445  -0.080770   0.003933  -0.048378
   61  C 16  S    0.240808   0.105227   0.004977   0.146492   0.083713
   62  C 16  X   -0.013559  -0.175020  -0.016623   0.119268   0.026908
   63  C 16  Y   -0.093279   0.010979   0.014997   0.008302  -0.034879
   64  C 16  Z    0.072586  -0.039234  -0.021807   0.000825   0.030173
   65  C 17  S    0.143094  -0.120554   0.059488   0.110991   0.104706
   66  C 17  X   -0.039123  -0.147951   0.060115  -0.092506  -0.081735
   67  C 17  Y    0.156825  -0.049399  -0.023594   0.026006   0.008211
   68  C 17  Z   -0.033099   0.026732  -0.001637  -0.004225   0.001736
   69  C 18  S   -0.211048   0.121253  -0.093439   0.082953   0.031663
   70  C 18  X   -0.051909  -0.124091   0.087763   0.050938  -0.013070
   71  C 18  Y    0.100104   0.014268   0.054715   0.010952   0.082532
   72  C 18  Z    0.035434  -0.007692   0.027053   0.000390   0.023771
   73  C 19  S   -0.186562  -0.060888  -0.083638   0.107816  -0.063286
   74  C 19  X   -0.016550  -0.104652  -0.140884  -0.113698   0.026248
   75  C 19  Y   -0.042235   0.027609   0.019717  -0.005118  -0.020751
   76  C 19  Z    0.156080  -0.030589  -0.012409   0.032165   0.073289
   77  C 20  S    0.240115  -0.061686  -0.080451   0.061701  -0.177945
   78  C 20  X   -0.024878   0.060462   0.166402   0.071352  -0.108581
   79  C 20  Y   -0.014958  -0.005375  -0.030853  -0.002288   0.003103
   80  C 20  Z   -0.116156  -0.000092  -0.042635  -0.004651  -0.033766
   81  C 21  S    0.132571  -0.091326  -0.024881  -0.096690   0.219278
   82  C 21  X    0.059591  -0.013236  -0.182143   0.001599  -0.108200
   83  C 21  Y   -0.058696   0.027808   0.112026   0.002629   0.064683
   84  C 21  Z   -0.077814   0.039404  -0.018008   0.029926  -0.021544
   85  C 22  S   -0.097365  -0.091768   0.024069  -0.102822   0.200026
   86  C 22  X    0.039091   0.008300  -0.184255   0.007737   0.075022
   87  C 22  Y   -0.048875  -0.021753  -0.083605  -0.010086   0.009754
   88  C 22  Z   -0.105946  -0.053826   0.080875  -0.009722  -0.078021
   89  C 23  S   -0.194818  -0.063266   0.084201   0.048795  -0.134136
   90  C 23  X   -0.025870  -0.059748   0.162519  -0.077211   0.101663
   91  C 23  Y   -0.112970  -0.004860  -0.017514  -0.001029   0.050672
   92  C 23  Z   -0.108724   0.004431  -0.058489   0.003873   0.041643
   93  C 24  S   -0.019851   0.099394  -0.089385   0.010443  -0.046332
   94  C 24  X    0.056215   0.055460  -0.061490   0.133385  -0.020720
   95  C 24  Y    0.052334   0.144713   0.109142   0.007143  -0.168435
   96  C 24  Z   -0.057570  -0.030252   0.114262  -0.162117  -0.030722
   97  C 25  S    0.057754  -0.036710   0.104504  -0.190520  -0.159694
   98  C 25  X   -0.036962   0.188446  -0.001410  -0.047075  -0.071690
   99  C 25  Y    0.056278  -0.020605  -0.057265  -0.001302   0.009521
  100  C 25  Z    0.009741  -0.111036   0.023506   0.034961   0.033488
  101  C 26  S    0.117752  -0.016356   0.001913   0.339930  -0.102827
  102  C 26  X   -0.006037  -0.003218   0.001039   0.005586  -0.006416
  103  C 26  Y    0.000327   0.102755   0.202302   0.016121   0.042385
  104  C 26  Z   -0.000228   0.204922  -0.099235   0.030521   0.018950
  105  C 27  S   -0.012279   0.046474   0.133241   0.039708   0.231425
  106  C 27  X    0.051891   0.020013   0.080151   0.112408  -0.084146
  107  C 27  Y   -0.073045   0.014074  -0.114307  -0.141595   0.085344
  108  C 27  Z   -0.016816   0.185858  -0.035122  -0.012574  -0.065938
  109  C 28  S   -0.087224   0.036420  -0.110001  -0.176686   0.034538
  110  C 28  X    0.035882   0.159636   0.092291  -0.022973   0.035939
  111  C 28  Y   -0.061476  -0.083609  -0.076373   0.036602   0.041049
  112  C 28  Z    0.089899  -0.054414   0.019712  -0.011407  -0.130321
  113  C 29  S    0.053099  -0.067904  -0.071201  -0.079369   0.151292
  114  C 29  X   -0.032396  -0.088866   0.173338  -0.009917   0.072741
  115  C 29  Y   -0.015364  -0.001460  -0.099677   0.021605   0.050262
  116  C 29  Z   -0.044386  -0.063231   0.048861   0.006276   0.097980
  117  C 30  S    0.062056   0.118963  -0.037470  -0.122516   0.145730
  118  C 30  X   -0.030516  -0.100605  -0.166796  -0.039210   0.014454
  119  C 30  Y   -0.029056  -0.049626  -0.095851  -0.032278  -0.005282
  120  C 30  Z    0.040728  -0.057963  -0.001339   0.027153   0.105666
  121  C 31  S   -0.010332  -0.146794  -0.040660  -0.097028  -0.182433
  122  C 31  X    0.050884  -0.082453  -0.014501   0.129491  -0.010516
  123  C 31  Y    0.018251  -0.114285   0.124838   0.077336  -0.098608
  124  C 31  Z    0.074160  -0.045083  -0.147411   0.140994   0.079267
  125  C 32  S   -0.098707   0.072722   0.085440  -0.181454  -0.110578
  126  C 32  X    0.038647  -0.168844   0.092325  -0.057158  -0.093292
  127  C 32  Y    0.103415  -0.041746  -0.024069   0.043153   0.077001
  128  C 32  Z    0.011643  -0.101261   0.054373  -0.043676  -0.052411

                     21         22         23         24         25
                   -0.8303    -0.7859    -0.7847    -0.7663    -0.7649
                     A          A          A          A          A   
    1  C  1  S   -0.050134  -0.111101   0.079442   0.003699  -0.007465
    2  C  1  X    0.002974   0.008789  -0.004189  -0.000647   0.001980
    3  C  1  Y    0.071444  -0.000825  -0.001351   0.056741  -0.003933
    4  C  1  Z   -0.034522   0.004796   0.000464   0.003563  -0.056345
    5  C  2  S   -0.249707   0.044123  -0.094438  -0.048967  -0.030254
    6  C  2  X   -0.020832   0.057006  -0.071952   0.013321  -0.022229
    7  C  2  Y    0.030172  -0.021070   0.107580  -0.011695   0.033406
    8  C  2  Z   -0.003648  -0.151129  -0.026215  -0.023341  -0.013291
    9  C  3  S    0.167431  -0.173132  -0.010160   0.023093  -0.086877
   10  C  3  X   -0.126685  -0.047159   0.016763  -0.023344  -0.105184
   11  C  3  Y    0.049889  -0.069724  -0.204950  -0.148781  -0.030298
   12  C  3  Z    0.085714   0.035236  -0.044362  -0.018970   0.074102
   13  C  4  S    0.189058   0.020643  -0.096424  -0.016745   0.064218
   14  C  4  X    0.029347   0.053465  -0.072254  -0.032546   0.006064
   15  C  4  Y   -0.072249   0.147809  -0.038007  -0.019146  -0.004648
   16  C  4  Z   -0.131716   0.075788   0.094433   0.036870  -0.011391
   17  C  5  S    0.130683  -0.024495   0.017826  -0.098522  -0.224983
   18  C  5  X   -0.109579  -0.028601   0.180443   0.012657   0.040909
   19  C  5  Y    0.007414  -0.030667   0.007540  -0.079803   0.034534
   20  C  5  Z   -0.031953   0.084968   0.021825   0.247784  -0.074713
   21  C  6  S    0.106296   0.018500  -0.009305  -0.186387   0.166015
   22  C  6  X    0.038198  -0.174208  -0.067626  -0.021535   0.041086
   23  C  6  Y   -0.060427  -0.008184   0.061585   0.154063   0.116149
[...]
   35  C  9  Y    0.073995  -0.114429  -0.032388   0.003143  -0.015226
   36  C  9  Z   -0.132682   0.258030  -0.004672   0.071713  -0.005566
   37  C 10  S   -0.001395   0.005627   0.033656  -0.047347   0.073434
   38  C 10  X    0.003537  -0.047212  -0.000278  -0.007823  -0.010347
   39  C 10  Y   -0.055973   0.005787   0.216094  -0.213181   0.155089
   40  C 10  Z    0.048818  -0.024823  -0.142386   0.143311  -0.083708
   41  C 11  S    0.002074  -0.005472  -0.037759   0.042261  -0.071884
   42  C 11  X    0.019716  -0.043387   0.007601  -0.001607  -0.010966
   43  C 11  Y   -0.050304  -0.055488  -0.179457   0.291347  -0.156900
   44  C 11  Z    0.018347  -0.001240   0.065063  -0.108564   0.076679
   45  C 12  S    0.048705  -0.012145   0.016830   0.000011  -0.008718
   46  C 12  X    0.035688  -0.029210   0.054961  -0.003349  -0.048383
   47  C 12  Y   -0.085173   0.060677   0.030346  -0.015079  -0.014713
   48  C 12  Z   -0.265970   0.144967  -0.051190  -0.051806   0.005988
   49  C 13  S   -0.016545  -0.016071  -0.020996  -0.091205  -0.089810
   50  C 13  X    0.030375   0.083228   0.031328   0.189546   0.089392
   51  C 13  Y   -0.075740  -0.134097  -0.035342  -0.157663  -0.054635
   52  C 13  Z   -0.035475  -0.132267  -0.042505  -0.147571  -0.060254
   53  C 14  S   -0.031669  -0.028246   0.022408   0.081534   0.130790
   54  C 14  X    0.202915   0.075558  -0.000158  -0.198534  -0.171456
   55  C 14  Y   -0.018791   0.012501   0.012178   0.058190   0.043296
   56  C 14  Z   -0.166768  -0.059686   0.003310   0.182893   0.050822
   57  C 15  S    0.030716   0.039603  -0.026882  -0.026054   0.005250
   58  C 15  X   -0.104659  -0.112724   0.012797   0.055913   0.009967
   59  C 15  Y   -0.033745  -0.072393   0.020728  -0.014212  -0.093327
   60  C 15  Z    0.148118   0.175274   0.047877   0.012686   0.056154
   61  C 16  S    0.036541   0.033459   0.003779   0.015349   0.008590
   62  C 16  X   -0.017420  -0.043128  -0.009425  -0.054440  -0.047721
   63  C 16  Y    0.104986   0.150305   0.046019   0.048996   0.013972
   64  C 16  Z    0.132647   0.226594   0.043024  -0.006068  -0.008417
   65  C 17  S   -0.004469  -0.003667   0.024184   0.052595   0.072505
   66  C 17  X    0.039000   0.026655   0.007169   0.004001  -0.010922
   67  C 17  Y   -0.009228  -0.021448   0.007295   0.022136  -0.006425
   68  C 17  Z    0.019387  -0.070168   0.092728   0.351886   0.174774
   69  C 18  S    0.003814   0.004224  -0.017875  -0.053512  -0.072790
   70  C 18  X    0.027715   0.038788  -0.002228   0.007034  -0.010485
   71  C 18  Y   -0.029641  -0.006243   0.028041   0.054317   0.013505
   72  C 18  Z    0.068737  -0.022927  -0.171925  -0.314928  -0.176095
   73  C 19  S   -0.013774   0.048443  -0.008216   0.014467  -0.008891
   74  C 19  X    0.007409   0.045710  -0.024332   0.049219  -0.047688
   75  C 19  Y   -0.000583   0.314400  -0.058604  -0.001125   0.001303
   76  C 19  Z   -0.012185   0.061392  -0.036859   0.038463  -0.016070
   77  C 20  S   -0.047447   0.014891  -0.015573  -0.004649   0.007784
   78  C 20  X    0.045761   0.006334   0.051765   0.019340  -0.047897
   79  C 20  Y    0.318380  -0.009552   0.048207  -0.041367   0.002545
   80  C 20  Z   -0.026673   0.012983  -0.048377  -0.006969   0.015796
   81  C 21  S    0.021822  -0.006592   0.089147   0.027792  -0.090230
   82  C 21  X   -0.086641  -0.014658  -0.179662  -0.068349   0.090147
   83  C 21  Y   -0.191036  -0.030467  -0.206586  -0.057159   0.079027
   84  C 21  Z    0.067001  -0.016717   0.058989   0.023702  -0.017211
   85  C 22  S    0.016132   0.016321   0.047651   0.080558   0.090163
   86  C 22  X    0.083047   0.029006   0.108289   0.159125   0.090522
   87  C 22  Y   -0.148529  -0.076631  -0.091333  -0.152769  -0.061169
   88  C 22  Z    0.117031   0.025176   0.062370   0.120882   0.054110
   89  C 23  S   -0.034785  -0.036054  -0.008625  -0.014474  -0.007925
   90  C 23  X   -0.043140  -0.016509  -0.030794  -0.045731  -0.047872
   91  C 23  Y    0.176052   0.114946  -0.001538   0.069900   0.011461
   92  C 23  Z   -0.211758  -0.116324   0.032772  -0.018660   0.010839
   93  C 24  S    0.029144   0.031010  -0.039479  -0.074329  -0.131901
   94  C 24  X    0.080745   0.200807  -0.135104  -0.143780  -0.172619
   95  C 24  Y    0.004820  -0.036502   0.044129   0.064695   0.048719
   96  C 24  Z    0.065047   0.161961  -0.118213  -0.128451  -0.047482
   97  C 25  S   -0.039831  -0.029312  -0.002516   0.036724  -0.004047
   98  C 25  X   -0.115887  -0.102206   0.027885   0.049433   0.011405
   99  C 25  Y   -0.053703  -0.016335  -0.028328   0.008233  -0.086518
  100  C 25  Z   -0.186067  -0.146729   0.021084  -0.042273  -0.064389
  101  C 26  S    0.000093  -0.000137   0.000044  -0.000035   0.179506
  102  C 26  X    0.000901  -0.000941  -0.000097   0.000247   0.304402
  103  C 26  Y   -0.034258   0.020863   0.019664  -0.037757  -0.000184
  104  C 26  Z   -0.020994  -0.034309   0.037659   0.019723   0.000150
  105  C 27  S    0.012515  -0.040428  -0.045039   0.071453  -0.130627
  106  C 27  X    0.134053  -0.169289  -0.057356   0.189519  -0.170924
  107  C 27  Y    0.111091  -0.125115  -0.062536   0.179924  -0.063640
  108  C 27  Z   -0.024389   0.056348  -0.003373  -0.022307  -0.019458
  109  C 28  S    0.005712  -0.022544   0.046356  -0.081301   0.089832
  110  C 28  X   -0.017086  -0.087125   0.084321  -0.172865   0.089847
  111  C 28  Y   -0.036733  -0.182840   0.107481  -0.175942   0.078094
  112  C 28  Z    0.011088  -0.088112   0.038694  -0.077057   0.026165
  113  C 29  S   -0.005529   0.049136   0.033253  -0.016387  -0.005807
  114  C 29  X   -0.031200   0.151501   0.029131  -0.049638   0.009676
  115  C 29  Y   -0.036267   0.176077  -0.051565  -0.008588  -0.013770
  116  C 29  Z    0.006443  -0.164916   0.005027  -0.018235   0.108812
  117  C 30  S    0.045714  -0.019832  -0.030970  -0.020331  -0.004948
  118  C 30  X    0.146188  -0.048494  -0.056704  -0.000077   0.010442
  119  C 30  Y   -0.210750   0.094449  -0.025717  -0.020789   0.100636
  120  C 30  Z   -0.074324   0.010365  -0.007043  -0.044595  -0.042565
  121  C 31  S   -0.041415   0.009352   0.084192   0.003159  -0.131726
  122  C 31  X   -0.214466  -0.031778   0.192049  -0.045120  -0.172466
  123  C 31  Y    0.135105   0.010962  -0.108453   0.030168   0.016091
  124  C 31  Z    0.111655   0.032898  -0.152776   0.023930   0.065959
  125  C 32  S   -0.022304   0.006368  -0.093789   0.000491   0.091052
  126  C 32  X   -0.066436   0.058537  -0.191786   0.013192   0.090915
  127  C 32  Y   -0.000797  -0.031817   0.028348   0.007064  -0.016003
  128  C 32  Z    0.161642  -0.123964   0.221547   0.002568  -0.081125

                     71         72         73         74
                   -0.0368    -0.0368    -0.0324    -0.0304
                     A          A          A          A   
    1  C  1  S    0.000749  -0.001715   0.081142   0.097322
    2  C  1  X   -0.001167   0.002971  -0.157589  -0.111663
    3  C  1  Y    0.044775   0.009660  -0.000087   0.000274
    4  C  1  Z    0.009620  -0.044732  -0.000311   0.000071
    5  C  2  S    0.092984  -0.043556  -0.044624  -0.078532
    6  C  2  X   -0.127489   0.001442   0.098741   0.078687
    7  C  2  Y   -0.115468   0.007190   0.000979   0.006592
    8  C  2  Z   -0.099496  -0.005300   0.062981   0.079903
    9  C  3  S    0.059378  -0.040289  -0.071203  -0.060459
   10  C  3  X   -0.070267  -0.007261   0.068625   0.049391
   11  C  3  Y   -0.037506  -0.004320   0.022931   0.021807
   12  C  3  Z    0.003667   0.093407   0.172805   0.170846
   13  C  4  S   -0.085823  -0.057343  -0.043968  -0.079546
   14  C  4  X    0.068180   0.108013   0.098412   0.079643
   15  C  4  Y   -0.071969  -0.124886  -0.054663  -0.073030
   16  C  4  Z    0.033096   0.038593  -0.030686  -0.033290
   17  C  5  S    0.093354  -0.010217  -0.021617  -0.067266
   18  C  5  X    0.063865   0.018456   0.095776  -0.045076
   19  C  5  Y   -0.228456  -0.006436  -0.002266   0.140017
   20  C  5  Z    0.022427   0.016419  -0.054914  -0.015707
   21  C  6  S    0.089692   0.026400   0.022204  -0.066158
   22  C  6  X   -0.065040   0.007122   0.095256   0.047461
   23  C  6  Y   -0.068106  -0.024855   0.050612   0.043610
   24  C  6  Z   -0.217606  -0.026097  -0.021115   0.134127
   25  C  7  S   -0.142543   0.020656   0.084539   0.111049
   26  C  7  X    0.168032  -0.012339  -0.079208  -0.105164
   27  C  7  Y    0.148837   0.003597  -0.053232  -0.086890
   28  C  7  Z    0.198774   0.003131  -0.124959  -0.150744
   29  C  8  S    0.089929   0.112999   0.084178   0.111782
   30  C  8  X   -0.095643  -0.138892  -0.078429  -0.105998
   31  C  8  Y    0.119990   0.216128   0.134146   0.174391
   32  C  8  Z   -0.013749  -0.025845   0.016481   0.000191
   33  C  9  S    0.058607   0.095832   0.114414   0.067795
   34  C  9  X    0.039172  -0.012698   0.002630  -0.033077
   35  C  9  Y    0.047033   0.073121   0.058461   0.076059
   36  C  9  Z   -0.159938  -0.189108  -0.191440  -0.124254
   37  C 10  S   -0.056626  -0.075387  -0.020074  -0.067363
   38  C 10  X   -0.014446  -0.064726   0.095529  -0.045458
   39  C 10  Y   -0.057798  -0.075232   0.049646  -0.056370
   40  C 10  Z    0.093412   0.186844   0.023988   0.128438
   41  C 11  S   -0.020612  -0.091279   0.021517  -0.065854
   42  C 11  X    0.040099   0.052700   0.094809   0.048080
   43  C 11  Y   -0.078969  -0.211955  -0.007105  -0.137932
   44  C 11  Z   -0.032390  -0.038622   0.054906  -0.029163
   45  C 12  S   -0.110806  -0.021306  -0.116231   0.065389
   46  C 12  X    0.002097   0.040789   0.002136   0.033227
   47  C 12  Y    0.059455   0.009377   0.039460  -0.061058
   48  C 12  Z    0.240602   0.085353   0.199000  -0.127245
   49  C 13  S   -0.064362  -0.031869  -0.070577  -0.061341
   50  C 13  X    0.028679   0.064770   0.068356   0.049830
   51  C 13  Y   -0.077160   0.026160  -0.159960  -0.159549
   52  C 13  Z   -0.026548   0.054893  -0.065659  -0.066708
   53  C 14  S   -0.008658   0.104314  -0.043536  -0.079491
   54  C 14  X    0.062328  -0.114548   0.097233   0.079434
   55  C 14  Y    0.021716  -0.020853   0.053578   0.065965
   56  C 14  Z   -0.071967   0.132453  -0.030546  -0.046485
   57  C 15  S    0.054204  -0.135126   0.083113   0.112725
   58  C 15  X   -0.073818   0.152545  -0.076980  -0.105935
   59  C 15  Y   -0.050572   0.084182  -0.080587  -0.087909
   60  C 15  Z    0.119065  -0.196019   0.105213   0.151279
   61  C 16  S    0.054886  -0.098614   0.113325   0.068473
   62  C 16  X   -0.029940  -0.027869   0.002946  -0.033271
   63  C 16  Y    0.054221  -0.163374   0.134980   0.070442
   64  C 16  Z    0.078073  -0.183553   0.144836   0.128521
   65  C 17  S   -0.037505   0.086621  -0.019662  -0.066827
   66  C 17  X   -0.047261   0.044522   0.096197  -0.044965
   67  C 17  Y   -0.081978   0.107141  -0.044009  -0.083689
   68  C 17  Z   -0.089657   0.162823   0.032364  -0.112645
   69  C 18  S   -0.067852   0.063565   0.023193  -0.066821
   70  C 18  X    0.026887  -0.061361   0.094586   0.048226
   71  C 18  Y    0.086011  -0.128034  -0.046025   0.094596
   72  C 18  Z   -0.115116   0.127355  -0.031195  -0.106138
   73  C 19  S    0.035297   0.106909  -0.115801   0.064591
   74  C 19  X    0.034681  -0.022262   0.001625   0.032838
   75  C 19  Y    0.047846   0.246371  -0.191353   0.139438
   76  C 19  Z    0.003795   0.076855  -0.065115   0.010198
   77  C 20  S   -0.111728   0.001619   0.116026   0.068588
   78  C 20  X   -0.008918   0.039513   0.003327  -0.033523
   79  C 20  Y    0.252783  -0.037633  -0.197523  -0.146735
   80  C 20  Z   -0.046194   0.017999   0.045260  -0.003472
   81  C 21  S    0.004293   0.071361  -0.071027  -0.062017
   82  C 21  X    0.042163  -0.056769   0.068036   0.050674
   83  C 21  Y   -0.082115  -0.022637   0.138881   0.138067
   84  C 21  Z    0.021111   0.049173  -0.106105  -0.105149
   85  C 22  S    0.052529   0.049427   0.072884  -0.058665
   86  C 22  X    0.071796   0.004189   0.069766  -0.047637
   87  C 22  Y    0.000650  -0.083481  -0.172369   0.161091
   88  C 22  Z   -0.042200   0.033916   0.051192  -0.047669
   89  C 23  S    0.073296  -0.083806  -0.118011   0.065050
   90  C 23  X   -0.036446  -0.018974   0.002161   0.033149
   91  C 23  Y   -0.148148   0.117775   0.155416  -0.079403
   92  C 23  Z    0.129062  -0.121306  -0.136155   0.116915
   93  C 24  S   -0.093994   0.041954   0.046308  -0.078922
   94  C 24  X   -0.084640   0.095075   0.100318  -0.077965
   95  C 24  Y   -0.000782   0.014676   0.051925  -0.058561
   96  C 24  Z   -0.100698   0.114118   0.039587  -0.052417
   97  C 25  S    0.107582  -0.095476  -0.087611   0.109050
   98  C 25  X    0.118190  -0.120078  -0.082472   0.104122
   99  C 25  Y    0.046126  -0.056365  -0.071848   0.068168
  100  C 25  Z    0.149406  -0.184102  -0.121780   0.156617
  101  C 26  S   -0.001214   0.001338  -0.082803   0.096570
  102  C 26  X   -0.002264   0.001972  -0.159321   0.109368
  103  C 26  Y    0.019958   0.041474  -0.000097   0.000292
  104  C 26  Z    0.041366  -0.020028  -0.000402   0.000047
  105  C 27  S    0.010946  -0.104480   0.045284  -0.079563
  106  C 27  X   -0.039219  -0.124278   0.099148  -0.078484
  107  C 27  Y   -0.035853  -0.121931   0.007298  -0.016627
  108  C 27  Z    0.034636   0.080036  -0.063834   0.076927
  109  C 28  S   -0.068551   0.020333   0.072826  -0.057922
  110  C 28  X   -0.039310   0.059854   0.070336  -0.046987
  111  C 28  Y   -0.042781  -0.068690   0.129045  -0.121088
  112  C 28  Z   -0.057455  -0.011892   0.123585  -0.115355
  113  C 29  S    0.028618   0.142550  -0.086437   0.110104
  114  C 29  X    0.044605   0.163844  -0.080752   0.104456
  115  C 29  Y    0.060449   0.158938  -0.067485   0.101349
  116  C 29  Z   -0.064354  -0.170937   0.121484  -0.137879
  117  C 30  S   -0.138584  -0.045355  -0.085888   0.109647
  118  C 30  X   -0.164671  -0.041778  -0.080065   0.103423
  119  C 30  Y    0.240691   0.038069   0.137522  -0.169253
  120  C 30  Z    0.055218   0.008203  -0.002634  -0.018741
  121  C 31  S    0.085322   0.059647   0.045140  -0.078609
  122  C 31  X    0.127482   0.024818   0.098564  -0.077293
  123  C 31  Y   -0.137076  -0.022607  -0.058259   0.074453
  124  C 31  Z   -0.063114  -0.020576   0.026155  -0.025387
  125  C 32  S    0.017005  -0.069794   0.072674  -0.059410
  126  C 32  X   -0.031605  -0.063888   0.069933  -0.048069
  127  C 32  Y   -0.006615  -0.037656   0.042149  -0.039489
  128  C 32  Z   -0.090650   0.025659  -0.173087   0.163537

     ----------------------------------------------------------------
     PROPERTY VALUES FOR THE RHF   SELF-CONSISTENT FIELD WAVEFUNCTION
     ----------------------------------------------------------------

                    -------------
                    MOPAC CHARGES
                    -------------
         ATOM NO.   TYPE          CHARGE        ATOM  ELECTRON DENSITY
           1         C              0.0461          3.9539
           2         C             -0.0273          4.0273
           3         C             -0.0034          4.0034
           4         C             -0.0268          4.0268
           5         C             -0.0025          4.0025
           6         C             -0.0030          4.0030
           7         C              0.0219          3.9781
           8         C              0.0217          3.9783
           9         C             -0.0043          4.0043
          10         C             -0.0027          4.0027
          11         C             -0.0028          4.0028
          12         C             -0.0046          4.0046
          13         C             -0.0029          4.0029
          14         C             -0.0266          4.0266
          15         C              0.0211          3.9789
          16         C             -0.0045          4.0045
          17         C             -0.0031          4.0031
          18         C             -0.0023          4.0023
          19         C             -0.0047          4.0047
          20         C             -0.0047          4.0047
          21         C             -0.0024          4.0024
          22         C             -0.0025          4.0025
          23         C             -0.0048          4.0048
          24         C             -0.0277          4.0277
          25         C              0.0223          3.9777
          26         C              0.0469          3.9531
          27         C             -0.0274          4.0274
          28         C             -0.0031          4.0031
          29         C              0.0220          3.9780
          30         C              0.0218          3.9782
          31         C             -0.0275          4.0275
          32         C             -0.0025          4.0025

          ---------------------
          ELECTROSTATIC MOMENTS
          ---------------------

 POINT   1           X           Y           Z (ANGS)      CHARGE
                 0.000000    0.000000    0.000000        0.00 (A.U.)
         DX          DY          DZ         /D/  (DEBYE)
     0.006272   -0.003260   -0.001781    0.007289
 ...... END OF PROPERTY EVALUATION ......
 CPU     0: STEP CPU TIME=     0.08 TOTAL CPU TIME=          0.8 (      0.0 MIN)
 TOTAL WALL CLOCK TIME=          0.9 SECONDS, CPU UTILIZATION IS    90.74%
  $VIB   
          IVIB=   0 IATOM=   0 ICOORD=   0 E=     -138.2373639969
 -5.292130113E-04-2.115089321E-04-1.799249500E-05-3.580843689E-04-9.139154600E-05
 -1.148890349E-04 7.333243525E-05-5.060711040E-04-2.643956978E-04-1.588405740E-04
  2.693792693E-04-1.119287398E-04 1.649940605E-05-9.374867073E-05-3.596015401E-04
  3.390296629E-04 7.806567080E-06 2.959951686E-04-4.134283551E-04 4.777350301E-04
 -4.312448004E-04-4.986217932E-04 2.966115381E-04 2.170457560E-04 3.607835211E-05
 -6.364484388E-05 3.060274253E-04-1.541746203E-04 5.748377364E-04-6.158443073E-04
  4.596528321E-04-4.463133584E-04-9.386538822E-06-2.094025440E-05-1.154058712E-04
 -4.708037896E-04 6.666678998E-05 4.329499836E-04 1.416938141E-05-3.541879267E-05
 -4.974156209E-05 3.693406399E-04-5.416015263E-04-4.216804653E-04 3.059532538E-04
 -1.400927932E-04-2.985031374E-04-6.938742099E-05-1.035664702E-04 1.223889089E-04
  6.447775131E-04 2.156789108E-04 4.738058998E-04-3.607405647E-04-6.763053729E-05
  5.007012498E-04 1.656104079E-04-2.528175463E-05-1.033945411E-05 3.917484308E-04
  2.070124409E-04-1.131090280E-04 1.562396687E-04-1.470584561E-04-1.683688563E-04
 -1.816569210E-04-9.708046737E-05-5.296328140E-04 3.504859842E-05 3.371034920E-04
  5.215465710E-05 3.024984331E-04 1.442783353E-04 3.922996672E-04-3.297194374E-04
  5.184291735E-04-7.566057924E-05-9.008874495E-06 2.970674379E-04 2.252419042E-04
 -3.466411983E-04-5.704406776E-05-1.990210317E-04 4.139773268E-04 1.214427466E-04
  1.115241992E-04 2.727263612E-04 2.056377788E-04-3.354510622E-04 2.341392402E-04
  1.822269418E-04-1.729607091E-04-1.484234068E-04 1.279411069E-04-3.488358524E-05
 -2.836328376E-04
  6.271783860E-03-3.260488265E-03-1.780551455E-03
 ......END OF GEOMETRY SEARCH......
 CPU     0: STEP CPU TIME=     0.02 TOTAL CPU TIME=          0.8 (      0.0 MIN)
 TOTAL WALL CLOCK TIME=          0.9 SECONDS, CPU UTILIZATION IS    90.97%
                580000  WORDS OF DYNAMIC MEMORY USED
 EXECUTION OF GAMESS TERMINATED NORMALLY 21:03:51 22-MAY-2023    
 DDI: 263640 bytes (0.3 MB / 0 MWords) used by master data server.

 ----------------------------------------
 CPU timing information for all processes
 ========================================
 0: 0.562500 + 0.375000 = 0.937500
 1: 0.531250 + 0.187500 = 0.718750
 2: 0.218750 + 0.328125 = 0.546875
 3: 0.203125 + 0.234375 = 0.437500
 ----------------------------------------
           Disk usage (in bytes)       
 ========================================
 ----------------------------------------
            Local date and time          
 ========================================
22.05.2023 - 21:03:52,00                          
