          *******************************************************
          *                                                     *
          *          GAMESS VERSION = 30 SEP 2022 (R2)          *
          *                                                     *
          *              doi.org/10.1063/5.0005188              *
          *                                                     *
          *************** 64 BIT WINDOWS VERSION ****************

  GAMESS HAS BEEN MADE POSSIBLE WITH IMPORTANT CONTRIBUTIONS FROM
  THE FOLLOWING INDIVIDUALS (IN ALPHABETICAL ORDER):

     IVANA ADAMOVIC, CHRISTINE AIKENS, TOMOKO AKAMA,
     MELISA ALKAN, YURI ALEXEEV, YURIKO AOKI, POOJA ARORA,
     TOSHIO ASADA, ANDREY ASADCHEV, KIM K. BALDRIDGE,
     PRADIPTA BANDYOPADHYAY, TAYLOR A. BARNES, MARIA BARYSZ,
     ROB BELL, JONATHAN BENTZ, COLLEEN BERTONI,
     JERRY A. BOATZ, BRETT BODE, KURT BRORSEN, KURT R. BRORSEN,
     LAIMUTIS BYTAUTAS, CALEB CARLIN, LAURA CARRINGTON,
     GALINA CHABAN, BENOIT CHAMPAGNE, WEI CHEN, MAHITO CHIBA,
     DAN CHIPMAN, CHEOL HO CHOI, TANNER CULPITT,
     DIPAYAN DATTA, PAUL DAY, ALBERT DEFUSCO,
     NUWAN DESILVA, J. EMILIANO DEUSTUA,
     TIM DUDLEY, MICHEL DUPUIS, STEVEN T. ELBERT,
     DMITRI FEDOROV, KATHERINE FERRERAS, MICHAEL FILATOV,
     ALEX FINDLATER,GRAHAM FLETCHER, MARK FREITAG,
     CHRISTIAN FRIEDL, DAVID GARMER, 
     IGOR S. GERASIMOV, KURT GLAESEMANN,
     MARK S. GORDON, JEFFREY GOUR, FENG LONG GU,
     EMILIE B. GUIDEZ, ANASTASIA GUNINA, SHARON HAMMES-SCHIFFER,
     MASATAKE HARUTA, KIMIHIKO HIRAO, YASUHIRO IKABATA,
     TZVETELIN IORDANOV, STEPHAN IRLE, KAZUYA ISHIMURA,
     JOE IVANIC, FRANK JENSEN, JAN H. JENSEN, VISVALDAS KAIRYS,
     MUNEAKI KAMIYA, MICHIO KATOUDA, NAOAKI KAWAKAMI, DAN KEMP,
     BERNARD KIRTMAN, KAZUO KITAURA, MARIUSZ KLOBUKOWSKI,
     MASATO KOBAYASHI, KONSTANTIN KOMAROV, PRAKASHAN KORAMBATH,
     JACEK KORCHOWIEC, SHIRO KOSEKI, KAROL KOWALSKI,
     JIMMY KROMANN, STANISLAW KUCHARSKI, HENRY KURTZ,
     SAROM SOK LEANG, SEUNGHOON LEE, HUI LI, SHUHUA LI, WEI LI,
     JESSE LUTZ, ALEKSANDR O. LYKHIN, MARCIN MAKOWSKI,
     JOANI MATO, NIKITA MATSUNAGA, BENEDETTA MENNUCCI,
     GRANT MERRILL, NORIYUKI MINEZAWA, VLADIMIR MIRONOV,
     EISAKU MIYOSHI, JOHN A. MONTGOMERY JR., HIROTOSHI MORI,
     JONATHAN MULLIN, MONIKA MUSIAL, SHIGERU NAGASE,
     TAKESHI NAGATA, HIROMI NAKAI, TAKAHITO NAKAJIMA,
     YUYA NAKAJIMA, HARUYUKI NAKANO, HIROYA NAKATA, SEAN NEDD,
     HEATHER NETZLOFF, KIET A. NGUYEN, YOSHIO NISHIMOTO,
     BOSILJKA NJEGIC, RYAN OLSON, MIKE PAK, ROBERTO PEVERATI,
     BUU PHAM, PIOTR PIECUCH, ANNA POMOGAEVA, DAVID POOLE,
     SPENCER PRUITT, OLIVIER QUINET, LUKE ROSKOP,
     KLAUS RUEDENBERG, ANDREW SAND, TOSAPORN SATTASATHUCHANA,
     NOZOMI SAWADA, MICHAEL W. SCHMIDT, PATRICK E. SCHNEIDER,
     JUNJI SEINO, PRACHI SHARMA, JUN SHEN, JIM SHOEMAKER,
     YINAN SHU, DEJUN SI, JONATHAN SKONE, LYUDMILA SLIPCHENKO,
     TONY SMITH, JIE SONG, MARK SPACKMAN, CASPER STEINMANN,
     WALT STEVENS, PEIFENG SU, SHUJUN SU, CHET SWALINA,
     CHINAMI TAKASHIMA, TETSUYA TAKETSUGU, ZHEN TAO,
     NANDUN THELLAMUREGE, SEIKEN TOKURA, JACOPO TOMASI,
     TSUGUKI TOUMA, TAKAO TSUNEDA, HIROAKI UMEDA,
     JORGE LUIS GALVEZ VALLEJO, YALI WANG, SIMON WEBB,
     AARON WEST, THERESA L. WINDUS, MARTA WLOCH,
     PENG XU, KIYOSHI YAGI, SUSUMU YANAGISAWA, YANG YANG,
     SOOHAENG YOO, TAKESHI YOSHIKAWA, FEDERICO ZAHARIEV,
     TOBY ZENG

  WHO ARE SUPPORTED BY THEIR INSTITUTION/UNIVERSITY/COMPANY/GROUP
  (IN ALPHABETICAL ORDER):

     EP ANALYTICS,
     FACULTES UNIVERSITAIRES NOTRE-DAME DE LA PAIX,
     INSTITUTE FOR MOLECULAR SCIENCE, IOWA STATE UNIVERSITY,
     JACKSON STATE UNIVERSITY, JOHANNES KEPLER UNIVERSITY LINZ,
     KYUNGPOOK NATIONAL UNIVERSITY
     KYUSHU UNIVERSITY, MICHIGAN STATE UNIVERSITY,
     MIE UNIVERSITY, THE MOLECULAR SCIENCES SOFTWARE INSTITUTE,
     MOSCOW STATE UNIVERSITY,
     N. COPERNICUS UNIVERSITY, NAGOYA UNIVERSITY,
     NANJING UNIVERSITY, NAT. INST. OF ADVANCED INDUSTRIAL
     SCIENCE AND TECHNOLOGY, NATIONAL INST. OF STANDARDS AND
     TECHNOLOGY, NESMEYANOV INSTITUTE OF ORGANOELEMENT COMPOUNDS
     OF RUSSIAN ACADEMY OF SCIENCES, OSAKA PREFECTURE UNIVERSITY,
     PENNSYLVANIA STATE UNIVERSITY, TOKYO INSTITUTE OF TECHNOLOGY,
     UNIVERSITY OF AARHUS, UNIVERSITY OF ALBERTA,
     UNIVERSITY OF CALIFORNIA AT SANTA BARBARA,
     UNIVERSITY OF COPENHAGEN, UNIVERSITY OF IOWA,
     UNIVERSITY OF MEMPHIS, UNIVERSITY OF MINNESOTA,
     UNIVERSITY OF NEBRASKA, UNIVERSITY OF NEW ENGLAND,
     UNIVERSITY OF NOTRE DAME, UNIVERSITY OF PISA,
     UNIVERSITY OF SILESIA, UNIVERSITY OF TOKYO,
     UNIVERSITY OF ZURICH, WASEDA UNIVERSITY,
     YALE UNIVERSITY

  GAMESS SOFTWARE MANAGEMENT TEAM FOR THIS RELEASE:
     MARK S. GORDON (TEAM LEAD),
     BRETT BODE (SENIOR ADVISOR),
     GIUSEPPE BARCA,
     COLLEEN BERTONI,
     KRISTOPHER KEIPERT (ADVISOR),
     SAROM S. LEANG (DEVELOPMENT LEAD),
     BUU PHAM,
     JACKSON HAYES (WEBSITE ADMINISTRATOR),
     PENG XU


 PARALLEL VERSION RUNNING ON        2 PROCESSORS IN        2 NODES.

 EXECUTION OF GAMESS BEGUN 21:03:29 22-MAY-2023    

            ECHO OF THE FIRST FEW INPUT CARDS -
 INPUT CARD>! (Energy/Geometry) PM3                                                         
 INPUT CARD> $CONTRL                                                                        
 INPUT CARD>COORD=UNIQUE                                                                    
 INPUT CARD>ICHARG=0                                                                        
 INPUT CARD>MAXIT=200                                                                       
 INPUT CARD>MULT=1                                                                          
 INPUT CARD>RUNTYP=OPTIMIZE                                                                 
 INPUT CARD>SCFTYP=RHF                                                                      
 INPUT CARD>UNITS=ANGS                                                                      
 INPUT CARD>! DFTTYP=PBE                                                                    
 INPUT CARD> $END                                                                           
 INPUT CARD> $DFT                                                                           
 INPUT CARD>METHOD=GRID                                                                     
 INPUT CARD> $END                                                                           
 INPUT CARD> $BASIS                                                                         
 INPUT CARD>! EXTFIL=.T.                                                                    
 INPUT CARD>! GBASIS=GEGSSBAS                                                               
 INPUT CARD>! NGAUSS=6                                                                      
 INPUT CARD>GBASIS=PM3                                                                      
 INPUT CARD>! NDFUNC=1                                                                      
 INPUT CARD>! NPFUNC=1                                                                      
 INPUT CARD> $END                                                                           
 INPUT CARD> $SCF                                                                           
 INPUT CARD>DAMP=.F.                                                                        
 INPUT CARD>DEM=.F.                                                                         
 INPUT CARD>DIIS=.F.                                                                        
 INPUT CARD>DIRSCF=.T.                                                                      
 INPUT CARD>EXTRAP=.T.                                                                      
 INPUT CARD>RSTRCT=.F.                                                                      
 INPUT CARD>SHIFT=.F.                                                                       
 INPUT CARD>SOSCF=.T.                                                                       
 INPUT CARD> $END                                                                           
 INPUT CARD> $STATPT                                                                        
 INPUT CARD>METHOD=QA                                                                       
 INPUT CARD>NSTEP=100                                                                       
 INPUT CARD>OPTTOL=0.001                                                                    
 INPUT CARD> $END                                                                           
 INPUT CARD> $GUESS                                                                         
 INPUT CARD>GUESS=HUCKEL                                                                    
 INPUT CARD> $END                                                                           
 INPUT CARD> $SYSTEM                                                                        
 INPUT CARD>MWORDS=10                                                                       
 INPUT CARD> $END                                                                           
 INPUT CARD> $DATA                                                                          
 INPUT CARD>C32 FULLERENE                                                                   
 INPUT CARD>C1                                                                              
 INPUT CARD>C	6.0	-0.54160	-2.13380	-1.18140                                                
 INPUT CARD>C	6.0	-1.79600	-1.65730	-0.98130                                                
 INPUT CARD>C	6.0	-0.04200	-2.54900	0.03870                                                 
 INPUT CARD>C	6.0	1.20920	-2.19700	0.42320                                                  
     10000000 WORDS OF MEMORY AVAILABLE

     BASIS OPTIONS
     -------------
     GBASIS=PM3          IGAUSS=       0      POLAR=NONE    
     NDFUNC=       0     NFFUNC=       0     DIFFSP=       F
     NPFUNC=       0      DIFFS=       F     BASNAM=        


     RUN TITLE
     ---------
 C32 FULLERENE                                                                   

 THE POINT GROUP OF THE MOLECULE IS C1      
 THE ORDER OF THE PRINCIPAL AXIS IS     0

 ATOM      ATOMIC                      COORDINATES (BOHR)
           CHARGE         X                   Y                   Z
 C           6.0    -1.0234755950       -4.0322973126       -2.2325222819
 C           6.0    -3.3939478739       -3.1318428795       -1.8543881118
 C           6.0    -0.0793684915       -4.8169115427        0.0731323957
 C           6.0     2.2850566644       -4.1517279950        0.7997320380
 C           6.0     3.9973373818       -2.9277524728       -0.7555124499
 C           6.0    -3.9570862183       -3.0755290450        0.6617820409
 C           6.0    -4.8698238704       -0.6808682734        1.0907498401
 C           6.0    -3.6401791701        0.8055901886        2.8697378850
 C           6.0    -1.8086567428       -3.9296851915        1.8738522894
 C           6.0    -0.4382274566       -2.3871018677        3.5536297199
 C           6.0    -1.3139264793        0.1062026005        3.9466927254
 C           6.0    -3.3599328062        3.1129456196        1.8056331813
 C           6.0    -0.9879487464        3.9850541629        2.1988851593
 C           6.0    -0.0848486968        4.8633988020       -0.1045018471
 C           6.0     0.4085587585        2.1720510503        3.5513620487
 C           6.0    -4.0096206007        3.1051977430       -0.6886161499
 C           6.0    -4.9338855813        0.7120487522       -1.1808897697
 C           6.0    -3.7206814972       -0.8199521061       -2.9341775411
 C           6.0    -1.8496637968        3.9578421087       -1.8816001660
 C           6.0    -0.5005884141        2.3657479640       -3.5252838301
 C           6.0    -1.3730749027       -0.1268006138       -3.9671017660
 C           6.0     3.7093431413        0.7589139567       -2.7075993952
 C           6.0     2.8895800078       -1.7404376347       -2.9058316513
 C           6.0     0.3471426639       -2.1969954333       -3.5832984179
 C           6.0     2.0174714645        2.7045758336       -2.8750291177
 C           6.0     5.1871088637        1.0688290187       -0.5829804672
 C           6.0     3.9905343683        2.9740507595        0.7568352581
 C           6.0     2.3149143350        4.2503716916       -0.7793229973
 C           6.0     2.1127136543       -2.7077883678        2.9799089100
 C           6.0     3.8582535491       -0.7819686137        2.8249513790
 C           6.0     2.9725389787        1.7041548957        2.9154692539
 C           6.0     5.2487139309       -1.1338355926        0.6595143697

          INTERNUCLEAR DISTANCES (ANGS.)
          ------------------------------

                1 C          2 C          3 C          4 C          5 C     

   1 C       0.0000000    1.3566914 *  1.3822573 *  2.3757180 *  2.8304870 *
   2 C       1.3566914 *  0.0000000    2.2163134 *  3.3608218    3.9557646  
   3 C       1.3822573 *  2.2163134 *  0.0000000    1.3554504 *  2.4177729 *
   4 C       2.3757180 *  3.3608218    1.3554504 *  0.0000000    1.3848688 *
   5 C       2.8304870 *  3.9557646    2.4177729 *  1.3848688 *  0.0000000  
   6 C       2.2387684 *  1.3647653 *  2.2708806 *  3.3527287    4.2763094  
   7 C       3.2219294    2.1728075 *  3.3921402    4.2109967    4.9382111  
   8 C       3.9700763    3.2569721    3.8200917    4.2323710    4.8905812  
   9 C       2.2130336 *  2.1850264 *  1.4020901 *  2.2427083 *  3.4141980  
  10 C       3.1982949    3.2850606    2.2542340 *  2.2522156 *  3.2849611  
  11 C       3.9385238    3.6839238    3.3786903    3.3878097    4.0827368  
  12 C       4.5157218    3.8303915    4.6328341    4.8974840    5.2165961  
  13 C       4.8475801    4.5172053    4.8157730    4.6997798    4.7734146  
  14 C       4.8656374    4.6716530    5.1234632    4.9558403    4.6672742  
  15 C       4.5520927    4.4843669    4.1391591    3.7821514    4.0104687  
  16 C       4.1749551    3.3734273    4.6970840    5.1442211    5.3053111  
  17 C       3.3007283    2.2200554 *  3.9496731    4.7239945    5.1085710  
  18 C       2.2504908 *  1.3612861 *  3.2740106    4.1367889    4.3879363  
  19 C       4.2547977    3.8396974    4.8485814    5.0216267    4.8171674  
  20 C       3.4651869    3.4043386    4.2570533    4.3938627    3.9573160  
  21 C       2.2689236 *  2.2186204 *  3.3465727    3.8271140    3.6278937  
  22 C       3.5726706    4.3095534    3.8588828    3.2810854    2.2127642 *
  23 C       2.4260322 *  3.4507983    2.7574945 *  2.3612795 *  1.4259059 *
  24 C       1.4072059 *  2.2362876 *  2.3910005 *  2.7388410 *  2.4738287 *
  25 C       3.9261113    4.2462625    4.4166861    4.1189022    3.3524681  
  26 C       4.3416353    5.1003644    4.1938160    3.2443363    2.2085139 *
  27 C       4.8258374    5.2554256    4.6654906    3.8773643    3.2240110  
  28 C       4.7877892    4.9709989    4.9831219    4.5240658    3.9014606  
  29 C       3.2945033    3.8840879    2.2265081 *  1.3867912 *  2.2170925 *
  30 C       4.0980996    4.7334765    3.3198499    2.2408479 *  2.2101279 *
  31 C       4.5943080    4.9264830    4.0961644    3.3148780    3.1742204  
  32 C       3.9637219    4.8789839    3.4415792    2.2395266 *  1.3785430 *

                6 C          7 C          8 C          9 C         10 C     

   1 C       2.2387684 *  3.2219294    3.9700763    2.2130336 *  3.1982949  
   2 C       1.3647653 *  2.1728075 *  3.2569721    2.1850264 *  3.2850606  
   3 C       2.2708806 *  3.3921402    3.8200917    1.4020901 *  2.2542340 *
   4 C       3.3527287    4.2109967    4.2323710    2.2427083 *  2.2522156 *
   5 C       4.2763094    4.9382111    4.8905812    3.4141980    3.2849611  
   6 C       0.0000000    1.3749959 *  2.3688344 *  1.3813904 *  2.4376113 *
   7 C       1.3749959 *  0.0000000    1.3886627 *  2.3982185 *  2.8307796 *
   8 C       2.3688344 *  1.3886627 *  0.0000000    2.7379027 *  2.4199945 *
   9 C       1.3813904 *  2.3982185 *  2.7379027 *  0.0000000    1.4079787 *
  10 C       2.4376113 *  2.8307796 *  2.4199945 *  1.4079787 *  0.0000000  
  11 C       2.7951555 *  2.4491417 *  1.4061014 *  2.4151487 *  1.4137963 *
  12 C       3.3452293    2.1936202 *  1.3527437 *  3.8163095    3.4230192  
  13 C       4.1340327    3.2649743    2.2196044 *  4.2142683    3.4596174  
  14 C       4.6917462    3.9267488    3.2600191    4.8558674    4.3015491  
  15 C       3.9225431    3.4317087    2.2898219 *  3.5483009    2.4538610 *
  16 C       3.3479702    2.2600509 *  2.2505010 *  4.1296195    4.1301887  
  17 C       2.2880612 *  1.4104999 *  2.2507154 *  3.3736533    3.8244307  
  18 C       2.2497465 *  2.2162303 *  3.1897715    3.1945580    3.9359586  
  19 C       4.1118922    3.3247270    3.1625968    4.6229075    4.4837332  
  20 C       4.0676624    3.7298497    3.8592743    4.4430156    4.5121318  
  21 C       3.2100905    3.2670474    3.8434261    3.6954765    4.1849960  
  22 C       4.8738869    5.0230751    4.8823405    4.5343106    4.3089051  
  23 C       4.1461021    4.6526599    4.8058273    3.7310416    3.8603514  
  24 C       3.2327020    3.7924738    4.3171243    3.2375174    3.8008297  
  25 C       4.7806116    4.5712912    4.3834759    4.7686050    4.5300569  
  26 C       5.3533659    5.4739725    5.0177493    4.7319782    4.1228108  
  27 C       5.2857132    5.0750245    4.3442316    4.8076536    3.9662867  
  28 C       5.1600506    4.7163548    4.1209728    5.0468228    4.4403718  
  29 C       3.4437779    3.9752856    3.5676023    2.2509348 *  1.3939875 *
  30 C       4.4595314    4.7092914    4.0560268    3.4670836    2.4575241 *
  31 C       4.6115661    4.4438474    3.5315416    3.9488450    2.8388255 *
  32 C       4.9786815    5.3647182    4.9544919    4.0680575    3.4411938  

               11 C         12 C         13 C         14 C         15 C     

   1 C       3.9385238    4.5157218    4.8475801    4.8656374    4.5520927  
   2 C       3.6839238    3.8303915    4.5172053    4.6716530    4.4843669  
   3 C       3.3786903    4.6328341    4.8157730    5.1234632    4.1391591  
   4 C       3.3878097    4.8974840    4.6997798    4.9558403    3.7821514  
   5 C       4.0827368    5.2165961    4.7734146    4.6672742    4.0104687  
   6 C       2.7951555 *  3.3452293    4.1340327    4.6917462    3.9225431  
   7 C       2.4491417 *  2.1936202 *  3.2649743    3.9267488    3.4317087  
   8 C       1.4061014 *  1.3527437 *  2.2196044 *  3.2600191    2.2898219 *
   9 C       2.4151487 *  3.8163095    4.2142683    4.8558674    3.5483009  
  10 C       1.4137963 *  3.4230192    3.4596174    4.3015491    2.4538610 *
  11 C       0.0000000    2.2332773 *  2.2579555 *  3.3698963    1.4386393 *
  12 C       2.2332773 *  0.0000000    1.3534456 *  2.2098380 *  2.2534739 *
  13 C       2.2579555 *  1.3534456 *  0.0000000    1.3892965 *  1.4066968 *
  14 C       3.3698963    2.2098380 *  1.3892965 *  0.0000000    2.4164428 *
  15 C       1.4386393 *  2.2534739 *  1.4066968 *  2.4164428 *  0.0000000  
  16 C       3.2511828    1.3639469 *  2.2601700 *  2.2966716 *  3.2778457  
  17 C       3.3368919    2.1921580 *  3.2494181    3.4255993    3.8549219  
  18 C       3.8885206    3.2647976    3.9918435    3.8715680    4.3657903  
  19 C       3.7076841    2.1554119 *  2.2069707 *  1.4093098 *  3.2537171  
  20 C       4.1531986    3.2255005    3.1585181    2.2521356 *  3.7769684  
  21 C       4.1897317    3.6573778    3.9271608    3.4082176    4.2659116  
  22 C       4.4254810    4.6097807    3.9792624    3.2628747    3.8183992  
  23 C       4.3648828    4.8733070    4.5482968    4.1094057    4.2054906  
  24 C       4.2586322    4.4582505    4.5347080    4.1713740    4.4272791  
  25 C       4.2461535    3.7787792    3.1933899    2.1661448 *  3.5169665  
  26 C       4.2237511    4.8191696    3.9021030    3.4466155    3.3943504  
  27 C       3.6099450    3.9297829    2.7944833 *  2.4203878 *  2.4412876 *
  28 C       3.8407424    3.3543171    2.3576032 *  1.3584557 *  2.7347991 *
  29 C       2.4015017 *  4.2732407    3.9251344    4.4797830    2.7519016 *
  30 C       2.8397940 *  4.3736934    3.6124688    3.9599973    2.4338874 *
  31 C       2.4815344 *  3.4827995    2.4480644 *  2.8224881 *  1.4196634 *
  32 C       3.9391368    5.1157384    4.3466252    4.2662791    3.4586813  

               16 C         17 C         18 C         19 C         20 C     

   1 C       4.1749551    3.3007283    2.2504908 *  4.2547977    3.4651869  
   2 C       3.3734273    2.2200554 *  1.3612861 *  3.8396974    3.4043386  
   3 C       4.6970840    3.9496731    3.2740106    4.8485814    4.2570533  
   4 C       5.1442211    4.7239945    4.1367889    5.0216267    4.3938627  
   5 C       5.3053111    5.1085710    4.3879363    4.8171674    3.9573160  
   6 C       3.3479702    2.2880612 *  2.2497465 *  4.1118922    4.0676624  
   7 C       2.2600509 *  1.4104999 *  2.2162303 *  3.3247270    3.7298497  
   8 C       2.2505010 *  2.2507154 *  3.1897715    3.1625968    3.8592743  
   9 C       4.1296195    3.3736533    3.1945580    4.6229075    4.4430156  
  10 C       4.1301887    3.8244307    3.9359586    4.4837332    4.5121318  
  11 C       3.2511828    3.3368919    3.8885206    3.7076841    4.1531986  
  12 C       1.3639469 *  2.1921580 *  3.2647976    2.1554119 *  3.2255005  
  13 C       2.2601700 *  3.2494181    3.9918435    2.2069707 *  3.1585181  
  14 C       2.2966716 *  3.4255993    3.8715680    1.4093098 *  2.2521356 *
  15 C       3.2778457    3.8549219    4.3657903    3.2537171    3.7769684  
  16 C       0.0000000    1.3823343 *  2.3978698 *  1.3815101 *  2.4196063 *
  17 C       1.3823343 *  0.0000000    1.3893205 *  2.3982062 *  2.7943880 *
  18 C       2.3978698 *  1.3893205 *  0.0000000    2.7717951 *  2.4173087 *
  19 C       1.3815101 *  2.3982062 *  2.7717951 *  0.0000000    1.4057068 *
  20 C       2.4196063 *  2.7943880 *  2.4173087 *  1.4057068 *  0.0000000  
  21 C       2.8074165 *  2.4334110 *  1.4059243 *  2.4400041 *  1.4168946 *
  22 C       4.4008889    4.6446705    4.0213788    3.4220209    2.4234959 *
  23 C       4.6131145    4.4336315    3.5317836    3.9592883    2.8367910 *
  24 C       3.9413519    3.4344934    2.2984087 *  3.5735634    2.4560120 *
  25 C       3.3993919    3.9302460    3.5636933    2.2144859 *  1.3878435 *
  26 C       4.9848887    5.3684586    4.9766399    4.0835542    3.4574778  
  27 C       4.3026051    4.9786750    4.9494592    3.4309749    3.2994853  
  28 C       3.4015600    4.2737766    4.3243851    2.2849368 *  2.3077931 *
  29 C       4.8710718    4.6933605    4.5079207    4.8432103    4.5793756  
  30 C       5.0022972    5.1735179    5.0371800    4.6494705    4.4030953  
  31 C       4.2235806    4.7412622    4.8899152    3.7918281    3.8880529  
  32 C       5.4354417    5.5621465    5.1158934    4.8143327    4.1940126  

               21 C         22 C         23 C         24 C         25 C     

   1 C       2.2689236 *  3.5726706    2.4260322 *  1.4072059 *  3.9261113  
   2 C       2.2186204 *  4.3095534    3.4507983    2.2362876 *  4.2462625  
   3 C       3.3465727    3.8588828    2.7574945 *  2.3910005 *  4.4166861  
   4 C       3.8271140    3.2810854    2.3612795 *  2.7388410 *  4.1189022  
   5 C       3.6278937    2.2127642 *  1.4259059 *  2.4738287 *  3.3524681  
   6 C       3.2100905    4.8738869    4.1461021    3.2327020    4.7806116  
   7 C       3.2670474    5.0230751    4.6526599    3.7924738    4.5712912  
   8 C       3.8434261    4.8823405    4.8058273    4.3171243    4.3834759  
   9 C       3.6954765    4.5343106    3.7310416    3.2375174    4.7686050  
  10 C       4.1849960    4.3089051    3.8603514    3.8008297    4.5300569  
  11 C       4.1897317    4.4254810    4.3648828    4.2586322    4.2461535  
  12 C       3.6573778    4.6097807    4.8733070    4.4582505    3.7787792  
  13 C       3.9271608    3.9792624    4.5482968    4.5347080    3.1933899  
  14 C       3.4082176    3.2628747    4.1094057    4.1713740    2.1661448 *
  15 C       4.2659116    3.8183992    4.2054906    4.4272791    3.5169665  
  16 C       2.8074165 *  4.4008889    4.6131145    3.9413519    3.3993919  
  17 C       2.4334110 *  4.6446705    4.4336315    3.4344934    3.9302460  
  18 C       1.4059243 *  4.0213788    3.5317836    2.2984087 *  3.5636933  
  19 C       2.4400041 *  3.4220209    3.9592883    3.5735634    2.2144859 *
  20 C       1.4168946 *  2.4234959 *  2.8367910 *  2.4560120 *  1.3878435 *
  21 C       0.0000000    2.8102157 *  2.4764334 *  1.4387550 *  2.4079088 *
  22 C       2.8102157 *  0.0000000    1.3958715 *  2.4139208 *  1.3672923 *
  23 C       2.4764334 *  1.3958715 *  0.0000000    1.4131504 *  2.3971009 *
  24 C       1.4387550 *  2.4139208 *  1.4131504 *  0.0000000    2.7657825 *
  25 C       2.4079088 *  1.3672923 *  2.3971009 *  2.7657825 *  0.0000000  
  26 C       3.9570931    1.3793007 *  2.2801495 *  3.4737893    2.2435965 *
  27 C       4.1228024    2.1810968 *  3.2124864    4.0595443    2.1918438 *
  28 C       3.4669323    2.2359200 *  3.3777130    3.8634631    1.3870039 *
  29 C       4.3338672    3.6245745    3.1830454    3.6067163    4.2196057  
  30 C       4.5499406    3.0401503    3.1171579    3.9385816    3.6675552  
  31 C       4.4149541    3.0424361    3.5796658    4.2448348    3.1503992  
  32 C       4.3077688    2.2003606 *  2.2849903 *  3.4763832    3.2477573  

               26 C         27 C         28 C         29 C         30 C     

   1 C       4.3416353    4.8258374    4.7877892    3.2945033    4.0980996  
   2 C       5.1003644    5.2554256    4.9709989    3.8840879    4.7334765  
   3 C       4.1938160    4.6654906    4.9831219    2.2265081 *  3.3198499  
   4 C       3.2443363    3.8773643    4.5240658    1.3867912 *  2.2408479 *
   5 C       2.2085139 *  3.2240110    3.9014606    2.2170925 *  2.2101279 *
   6 C       5.3533659    5.2857132    5.1600506    3.4437779    4.4595314  
   7 C       5.4739725    5.0750245    4.7163548    3.9752856    4.7092914  
   8 C       5.0177493    4.3442316    4.1209728    3.5676023    4.0560268  
   9 C       4.7319782    4.8076536    5.0468228    2.2509348 *  3.4670836  
  10 C       4.1228108    3.9662867    4.4403718    1.3939875 *  2.4575241 *
  11 C       4.2237511    3.6099450    3.8407424    2.4015017 *  2.8397940 *
  12 C       4.8191696    3.9297829    3.3543171    4.2732407    4.3736934  
  13 C       3.9021030    2.7944833 *  2.3576032 *  3.9251344    3.6124688  
  14 C       3.4466155    2.4203878 *  1.3584557 *  4.4797830    3.9599973  
  15 C       3.3943504    2.4412876 *  2.7347991 *  2.7519016 *  2.4338874 *
  16 C       4.9848887    4.3026051    3.4015600    4.8710718    5.0022972  
  17 C       5.3684586    4.9786750    4.2737766    4.6933605    5.1735179  
  18 C       4.9766399    4.9494592    4.3243851    4.5079207    5.0371800  
  19 C       4.0835542    3.4309749    2.2849368 *  4.8432103    4.6494705  
  20 C       3.4574778    3.2994853    2.3077931 *  4.5793756    4.4030953  
  21 C       3.9570931    4.1228024    3.4669323    4.3338672    4.5499406  
  22 C       1.3793007 *  2.1810968 *  2.2359200 *  3.6245745    3.0401503  
  23 C       2.2801495 *  3.2124864    3.3777130    3.1830454    3.1171579  
  24 C       3.4737893    4.0595443    3.8634631    3.6067163    3.9385816  
  25 C       2.2435965 *  2.1918438 *  1.3870039 *  4.2196057    3.6675552  
  26 C       0.0000000    1.3856733 *  2.2705506 *  3.1930454    2.1693239 *
  27 C       1.3856733 *  0.0000000    1.3795682 *  3.3781062    2.2700584 *
  28 C       2.2705506 *  1.3795682 *  0.0000000    4.1864811    3.3758497  
  29 C       3.1930454    3.3781062    4.1864811    0.0000000    1.3778645 *
  30 C       2.1693239 *  2.2700584 *  3.3758497    1.3778645 *  0.0000000  
  31 C       2.2166849 *  1.4306051 *  2.3998745 *  2.3788678 *  1.3974181 *
  32 C       1.3386532 *  2.2740599 *  3.3328557    2.2260730 *  1.3744668 *

               31 C         32 C     

   1 C       4.5943080    3.9637219  
   2 C       4.9264830    4.8789839  
   3 C       4.0961644    3.4415792  
   4 C       3.3148780    2.2395266 *
   5 C       3.1742204    1.3785430 *
   6 C       4.6115661    4.9786815  
   7 C       4.4438474    5.3647182  
   8 C       3.5315416    4.9544919  
   9 C       3.9488450    4.0680575  
  10 C       2.8388255 *  3.4411938  
  11 C       2.4815344 *  3.9391368  
  12 C       3.4827995    5.1157384  
  13 C       2.4480644 *  4.3466252  
  14 C       2.8224881 *  4.2662791  
  15 C       1.4196634 *  3.4586813  
  16 C       4.2235806    5.4354417  
  17 C       4.7412622    5.5621465  
  18 C       4.8899152    5.1158934  
  19 C       3.7918281    4.8143327  
  20 C       3.8880529    4.1940126  
  21 C       4.4149541    4.3077688  
  22 C       3.0424361    2.2003606 *
  23 C       3.5796658    2.2849903 *
  24 C       4.2448348    3.4763832  
  25 C       3.1503992    3.2477573  
  26 C       2.2166849 *  1.3386532 *
  27 C       1.4306051 *  2.2740599 *
  28 C       2.3998745 *  3.3328557  
  29 C       2.3788678 *  2.2260730 *
  30 C       1.3974181 *  1.3744668 *
  31 C       0.0000000    2.2652554 *
  32 C       2.2652554 *  0.0000000  

  * ... LESS THAN  3.000


 TOTAL NUMBER OF BASIS SET SHELLS             =   32
 NUMBER OF CARTESIAN GAUSSIAN BASIS FUNCTIONS =  128
 NUMBER OF ELECTRONS                          =  128
 CHARGE OF MOLECULE                           =    0
 SPIN MULTIPLICITY                            =    1
 NUMBER OF OCCUPIED ORBITALS (ALPHA)          =   64
 NUMBER OF OCCUPIED ORBITALS (BETA )          =   64
 TOTAL NUMBER OF ATOMS                        =   32
 THE NUCLEAR REPULSION ENERGY IS     3166.0375708216

 THE PARAMETERS USED IN THIS CALCULATION ARE DESCRIBED IN:

  C: (PM3): J. J. P. STEWART, J. COMP. CHEM. 10, 209 (1989).                    

 THERE ARE   32 HEAVY AND    0 LIGHT ATOMS,
 YIELDING A TOTAL OF     49600 MOPAC 2E- INTEGRALS.

     $CONTRL OPTIONS
     ---------------
 SCFTYP=RHF          RUNTYP=OPTIMIZE     EXETYP=RUN     
 MPLEVL=       0     CITYP =NONE         CCTYP =NONE         VBTYP =NONE    
 DFTTYP=NONE         TDDFT =NONE    
 MULT  =       1     ICHARG=       0     NZVAR =       0     COORD =UNIQUE  
 PP    =NONE         RELWFN=NONE         LOCAL =NONE         NUMGRD=       F
 ISPHER=      -1     NOSYM =       0     MAXIT =     200     UNITS =ANGS    
 PLTORB=       F     MOLPLT=       F     AIMPAC=       F     FRIEND=        
 NPRINT=       7     IREST =       0     GEOM  =INPUT   
 NORMF =       0     NORMP =       0     ITOL  =      20     ICUT  =       9
 INTTYP=BEST         GRDTYP=BEST         QMTTOL= 1.0E-06

     $SYSTEM OPTIONS
     ---------------
  REPLICATED MEMORY=    10000000 WORDS (ON EVERY NODE).
 DISTRIBUTED MEMDDI=           0 MILLION WORDS IN AGGREGATE,
 MEMDDI DISTRIBUTED OVER   2 PROCESSORS IS           0 WORDS/PROCESSOR.
 TOTAL MEMORY REQUESTED ON EACH PROCESSOR=    10000000 WORDS.
 TIMLIM=      525600.00 MINUTES, OR     365.0 DAYS.
 PARALL= T  BALTYP=  DLB     KDIAG=    0  COREFL= F
 MXSEQ2=     300 MXSEQ3=     150  mem10=         0  mem22=         0

          ----------------
          PROPERTIES INPUT
          ----------------

     MOMENTS            FIELD           POTENTIAL          DENSITY
 IEMOM =       1   IEFLD =       0   IEPOT =       0   IEDEN =       0
 WHERE =COMASS     WHERE =NUCLEI     WHERE =NUCLEI     WHERE =NUCLEI  
 OUTPUT=BOTH       OUTPUT=BOTH       OUTPUT=BOTH       OUTPUT=BOTH    
 IEMINT=       0   IEFINT=       0                     IEDINT=       0
                                                       MORB  =       0
          EXTRAPOLATION IN EFFECT
          SOSCF IN EFFECT
 ORBITAL PRINTING OPTION: NPREO=     1   128     2     1

     -------------------------------
     INTEGRAL TRANSFORMATION OPTIONS
     -------------------------------
     NWORD  =            0
     CUTTRF = 1.0E-09     MPTRAN =       0
     DIRTRF =       T     AOINTS =DUP     

          ----------------------
          INTEGRAL INPUT OPTIONS
          ----------------------
 NOPK  =       1 NORDER=       0 SCHWRZ=       T

     ------------------------------------------
     THE POINT GROUP IS C1 , NAXIS= 0, ORDER= 1
     ------------------------------------------

     DIMENSIONS OF THE SYMMETRY SUBSPACES ARE
 A   =  128

 ..... DONE SETTING UP THE RUN .....
 CPU     0: STEP CPU TIME=     0.03 TOTAL CPU TIME=          0.0 (      0.0 MIN)
 TOTAL WALL CLOCK TIME=          0.0 SECONDS, CPU UTILIZATION IS    66.49%


          -----------------------------
          STATIONARY POINT LOCATION RUN
          -----------------------------

 OBTAINING INITIAL HESSIAN, HESS=GUESS   
 CARTESIAN COORDINATE OPTIMIZATION USING BADGER'S RULE FORCE CONSTANT GUESS

          PARAMETERS CONTROLLING GEOMETRY SEARCH ARE
          METHOD =QA                  UPHESS =BFGS    
          NNEG   =         0          NFRZ   =         0
          NSTEP  =       100          IFOLOW =         1
          HESS   =GUESS               RESTAR =         F
          IHREP  =         0          HSSEND =         F
          NPRT   =         0          NPUN   =         0
          OPTTOL = 1.000E-03          RMIN   = 1.500E-03
          RMAX   = 1.000E-01          RLIM   = 7.000E-02
          DXMAX  = 3.000E-01          PURIFY =         F
          MOVIE  =         F          TRUPD  =         T
          TRMAX  = 5.000E-01          TRMIN  = 5.000E-02
          ITBMAT =         5          STPT   =         F
          STSTEP = 1.000E-02          PROJCT=          T

 BEGINNING GEOMETRY SEARCH POINT NSERCH=   0 ...

 COORDINATES OF ALL ATOMS ARE (ANGS)
   ATOM   CHARGE       X              Y              Z
 ------------------------------------------------------------
 C           6.0  -0.5416000000  -2.1338000000  -1.1814000000
 C           6.0  -1.7960000000  -1.6573000000  -0.9813000000
 C           6.0  -0.0420000000  -2.5490000000   0.0387000000
 C           6.0   1.2092000000  -2.1970000000   0.4232000000
 C           6.0   2.1153000000  -1.5493000000  -0.3998000000
 C           6.0  -2.0940000000  -1.6275000000   0.3502000000
 C           6.0  -2.5770000000  -0.3603000000   0.5772000000
 C           6.0  -1.9263000000   0.4263000000   1.5186000000
 C           6.0  -0.9571000000  -2.0795000000   0.9916000000
 C           6.0  -0.2319000000  -1.2632000000   1.8805000000
 C           6.0  -0.6953000000   0.0562000000   2.0885000000
 C           6.0  -1.7780000000   1.6473000000   0.9555000000
 C           6.0  -0.5228000000   2.1088000000   1.1636000000
 C           6.0  -0.0449000000   2.5736000000  -0.0553000000
 C           6.0   0.2162000000   1.1494000000   1.8793000000
 C           6.0  -2.1218000000   1.6432000000  -0.3644000000
 C           6.0  -2.6109000000   0.3768000000  -0.6249000000
 C           6.0  -1.9689000000  -0.4339000000  -1.5527000000
 C           6.0  -0.9788000000   2.0944000000  -0.9957000000
 C           6.0  -0.2649000000   1.2519000000  -1.8655000000
 C           6.0  -0.7266000000  -0.0671000000  -2.0993000000
 C           6.0   1.9629000000   0.4016000000  -1.4328000000
 C           6.0   1.5291000000  -0.9210000000  -1.5377000000
 C           6.0   0.1837000000  -1.1626000000  -1.8962000000
 C           6.0   1.0676000000   1.4312000000  -1.5214000000
 C           6.0   2.7449000000   0.5656000000  -0.3085000000
 C           6.0   2.1117000000   1.5738000000   0.4005000000
 C           6.0   1.2250000000   2.2492000000  -0.4124000000
 C           6.0   1.1180000000  -1.4329000000   1.5769000000
 C           6.0   2.0417000000  -0.4138000000   1.4949000000
 C           6.0   1.5730000000   0.9018000000   1.5428000000
 C           6.0   2.7775000000  -0.6000000000   0.3490000000

          ********************
          1 ELECTRON INTEGRALS
          ********************

          **************************
          1 AND 2 ELECTRON INTEGRALS
          **************************

 MOPAC ONE- AND TWO-ELECTRON INTEGRALS REQUIRE     66112 WORDS.
 ...... END OF ONE- AND TWO-ELECTRON INTEGRALS......
 CPU     0: STEP CPU TIME=     0.00 TOTAL CPU TIME=          0.0 (      0.0 MIN)
 TOTAL WALL CLOCK TIME=          0.0 SECONDS, CPU UTILIZATION IS    66.49%
 ...... END OF ONE-ELECTRON INTEGRALS ......
 CPU     0: STEP CPU TIME=     0.02 TOTAL CPU TIME=          0.0 (      0.0 MIN)
 TOTAL WALL CLOCK TIME=          0.1 SECONDS, CPU UTILIZATION IS    75.60%

          -------------
          GUESS OPTIONS
          -------------
          GUESS =HUCKEL            NORB  =       0          NORDER=       0
          MIX   =       F          PRTMO =       F          PUNMO =       F
          TOLZ  = 1.0E-08          TOLE  = 1.0E-05
          SYMDEN=       F          PURIFY=       F

 INITIAL GUESS ORBITALS GENERATED BY HUCKEL   ROUTINE.

 SYMMETRIES FOR INITIAL GUESS ORBITALS FOLLOW.   BOTH SET(S).
    64 ORBITALS ARE OCCUPIED (    0 CORE ORBITALS).
     1=A        2=A        3=A        4=A        5=A        6=A        7=A   
     8=A        9=A       10=A       11=A       12=A       13=A       14=A   
    15=A       16=A       17=A       18=A       19=A       20=A       21=A   
    22=A       23=A       24=A       25=A       26=A       27=A       28=A   
    29=A       30=A       31=A       32=A       33=A       34=A       35=A   
    36=A       37=A       38=A       39=A       40=A       41=A       42=A   
    43=A       44=A       45=A       46=A       47=A       48=A       49=A   
    50=A       51=A       52=A       53=A       54=A       55=A       56=A   
    57=A       58=A       59=A       60=A       61=A       62=A       63=A   
    64=A       65=A       66=A       67=A       68=A       69=A       70=A   
    71=A       72=A       73=A       74=A   
 ...... END OF INITIAL ORBITAL SELECTION ......
 CPU     0: STEP CPU TIME=     0.02 TOTAL CPU TIME=          0.1 (      0.0 MIN)
 TOTAL WALL CLOCK TIME=          0.1 SECONDS, CPU UTILIZATION IS    80.13%

          --------------------------
               R-PM3 SCF CALCULATION
          --------------------------

     NUCLEAR ENERGY =      1256.8260573678
     MAXIT =  200     NPUNCH=    2
     EXTRAP=T  DAMP=F  SHIFT=F  RSTRCT=F  DIIS=F  DEM=F  SOSCF=T
     DENSITY MATRIX CONV=  2.00E-05
     SOSCF WILL OPTIMIZE    4096 ORBITAL ROTATIONS, SOGTOL=   0.250
     MEMORY REQUIRED FOR RHF ITERS=    182976 WORDS.

                                                                                   NONZERO     BLOCKS
 ITER EX DEM     TOTAL ENERGY        E CHANGE  DENSITY CHANGE     ORB. GRAD      INTEGRALS    SKIPPED
   1  0  0     -136.8160217320  -136.8160217320   0.167820291   0.000000000              0          0
          ---------------START SECOND ORDER SCF---------------
   2  1  0     -137.8036996812    -0.9876779492   0.051862248   0.017402593              0          0
   3  2  0     -137.8826034945    -0.0789038132   0.039450954   0.009778960              0          0
   4  3  0     -137.8911219934    -0.0085184990   0.020025526   0.010787688              0          0
   5  4  0     -137.8964355661    -0.0053135727   0.007486258   0.002318609              0          0
   6  5  0     -137.8970163178    -0.0005807517   0.014644945   0.001759946              0          0
   7  6  0     -137.8973844316    -0.0003681138   0.002535816   0.000774324              0          0
   8  7  0     -137.8974323169    -0.0000478852   0.002021179   0.000613754              0          0
   9  8  0     -137.8974642741    -0.0000319572   0.003796699   0.000454126              0          0
  10  9  0     -137.8974865511    -0.0000222771   0.001346077   0.000169107              0          0
  11 10  0     -137.8974909610    -0.0000044099   0.001837570   0.000168282              0          0
  12 11  0     -137.8974949671    -0.0000040060   0.000585282   0.000108721              0          0
  13 12  0     -137.8974960199    -0.0000010528   0.000452678   0.000048275              0          0
  14 13  0     -137.8974965878    -0.0000005679   0.000331569   0.000033890              0          0
  15 14  0     -137.8974968326    -0.0000002448   0.000365070   0.000030097              0          0
  16 15  0     -137.8974970107    -0.0000001781   0.000245471   0.000027160              0          0
  17 16  0     -137.8974971071    -0.0000000964   0.000137615   0.000019068              0          0
  18 17  0     -137.8974971585    -0.0000000514   0.000095613   0.000010533              0          0
  19 18  0     -137.8974971838    -0.0000000253   0.000099453   0.000008762              0          0
  20 19  0     -137.8974971987    -0.0000000149   0.000078905   0.000005521              0          0
  21 20  0     -137.8974972067    -0.0000000079   0.000041087   0.000003656              0          0
  22 21  0     -137.8974972099    -0.0000000032   0.000013589   0.000002852              0          0
  23 22  0     -137.8974972108    -0.0000000009   0.000007001   0.000001247              0          0

          -----------------
          DENSITY CONVERGED
          -----------------
     TIME TO FORM FOCK OPERATORS=       0.0 SECONDS (       0.0 SEC/ITER)
     FOCK TIME ON FIRST ITERATION=       0.0, LAST ITERATION=       0.0
     TIME TO SOLVE SCF EQUATIONS=       0.1 SECONDS (       0.0 SEC/ITER)

 FINAL R-PM3 ENERGY IS     -137.8974972108 AFTER  23 ITERATIONS

 HEAT OF FORMATION IS      1016.29149 KCAL/MOL
 

          ------------
          EIGENVECTORS
          ------------

                      1          2          3          4          5
                   -1.9517    -1.7491    -1.6995    -1.5784    -1.4132
                     A          A          A          A          A   
    1  C  1  S    0.167021  -0.086884  -0.241371  -0.169189  -0.134172
    2  C  1  X   -0.003284   0.044268   0.005461   0.015036  -0.030907
    3  C  1  Y    0.038829  -0.025228  -0.034668  -0.063952   0.007606
    4  C  1  Z    0.031273  -0.014956  -0.060622   0.021389  -0.055317
    5  C  2  S    0.178533  -0.196416  -0.210969  -0.175679   0.053942
    6  C  2  X    0.031122  -0.007888  -0.054053  -0.042193  -0.066714
    7  C  2  Y    0.033443  -0.049960  -0.004550  -0.042153   0.078444
    8  C  2  Z    0.026746  -0.033747  -0.038681   0.027771   0.002638
    9  C  3  S    0.169286  -0.021642  -0.278248   0.015318  -0.263235
   10  C  3  X   -0.004069   0.050045   0.012053   0.024645  -0.003161
   11  C  3  Y    0.049340  -0.005333  -0.070092   0.004312  -0.053720
   12  C  3  Z    0.003266   0.008876  -0.006918   0.064531  -0.032928
   13  C  4  S    0.174966   0.123726  -0.233659   0.106593  -0.157900
   14  C  4  X   -0.018112   0.035195   0.049273  -0.008482   0.102942
   15  C  4  Y    0.045964   0.051288  -0.038468   0.032873   0.012164
   16  C  4  Z   -0.003520  -0.001516   0.004332   0.052528  -0.015526
   17  C  5  S    0.174780   0.217609  -0.138303   0.004738   0.095470
   18  C  5  X   -0.030387  -0.010132   0.044995   0.004243   0.050919
   19  C  5  Y    0.039881   0.068117   0.004047  -0.014697   0.082350
   20  C  5  Z    0.020441   0.030959  -0.026079   0.059464   0.003003
   21  C  6  S    0.170787  -0.200723  -0.187670  -0.012688   0.067068
   22  C  6  X    0.037485  -0.020956  -0.062332   0.004659  -0.066318
   23  C  6  Y    0.032043  -0.053231   0.003600   0.007608   0.090015
   24  C  6  Z   -0.019856   0.029872   0.028859   0.060289  -0.029243
   25  C  7  S    0.173774  -0.247509  -0.035250   0.060012   0.269834
   26  C  7  X    0.045302  -0.053063  -0.013668   0.026828   0.028276
   27  C  7  Y    0.010408  -0.019728   0.058888   0.031258   0.045915
   28  C  7  Z   -0.022039   0.038181   0.015965   0.053210  -0.057907
   29  C  8  S    0.169529  -0.199617   0.075031   0.221249   0.147218
   30  C  8  X    0.026846  -0.007190   0.017871   0.062185  -0.042560
   31  C  8  Y    0.002930  -0.002910   0.054989   0.015044  -0.003941
   32  C  8  Z   -0.041745   0.063297  -0.018834  -0.011894  -0.075196
   33  C  9  S    0.167713  -0.093056  -0.241474   0.097945  -0.197979
   34  C  9  X    0.017450   0.033714  -0.036483   0.037407  -0.087957
   35  C  9  Y    0.032635  -0.026093  -0.022329   0.036046   0.003601
   36  C  9  Z   -0.030742   0.028735   0.057280   0.041574   0.022257
   37  C 10  S    0.156611  -0.016260  -0.150705   0.238658  -0.180080
   38  C 10  X    0.006982   0.045457  -0.012790   0.020054  -0.026271
   39  C 10  Y    0.011020  -0.005869   0.034640   0.039871   0.035781
   40  C 10  Z   -0.040535   0.006627   0.055599  -0.031490   0.052196
   41  C 11  S    0.153658  -0.079942   0.019485   0.279473  -0.040812
   42  C 11  X    0.003225   0.040838  -0.008146   0.015219  -0.041741
   43  C 11  Y    0.004611  -0.010854   0.060313   0.013823   0.021940
   44  C 11  Z   -0.039629   0.028204  -0.006585  -0.052210  -0.001327
   45  C 12  S    0.180465  -0.198216   0.206826   0.182452   0.066285
   46  C 12  X    0.030758  -0.006963   0.053117   0.041406  -0.066976
   47  C 12  Y   -0.033117   0.049010  -0.002065  -0.044981  -0.074889
   48  C 12  Z   -0.027228   0.035244  -0.038476   0.027221  -0.012820
   49  C 13  S    0.168889  -0.086994   0.239548   0.169462  -0.129700
   50  C 13  X   -0.003760   0.045538  -0.005061  -0.018497  -0.035914
   51  C 13  Y   -0.037584   0.023980  -0.030610  -0.064459  -0.007784
   52  C 13  Z   -0.031765   0.016127  -0.061351   0.022446   0.049395
   53  C 14  S    0.169132  -0.025736   0.278597  -0.019568  -0.255861
   54  C 14  X   -0.003257   0.049435  -0.008884  -0.026895  -0.015727
   55  C 14  Y   -0.050139   0.006855  -0.071664   0.005108   0.053355
   56  C 14  Z   -0.003376  -0.007387  -0.007479   0.062449   0.029999
   57  C 15  S    0.155113  -0.002865   0.124745   0.240853  -0.069868
   58  C 15  X   -0.009410   0.055397  -0.019795  -0.034784   0.008798
   59  C 15  Y   -0.012868  -0.007176   0.030797  -0.040747  -0.011697
   60  C 15  Z   -0.036249  -0.001836  -0.042888  -0.026210   0.020033
   61  C 16  S    0.169789  -0.203190   0.181192   0.020838   0.099990
   62  C 16  X    0.038632  -0.024049   0.063051  -0.003194  -0.056532
   63  C 16  Y   -0.032362   0.053617   0.004069   0.004116  -0.091546
   64  C 16  Z    0.018933  -0.028054   0.026841   0.059565   0.026263
   65  C 17  S    0.170884  -0.245537   0.028561  -0.051010   0.282895
   66  C 17  X    0.046226  -0.055663   0.012340  -0.024565   0.037667
   67  C 17  Y   -0.010727   0.019818   0.057567   0.030262  -0.038416
   68  C 17  Z    0.022079  -0.037621   0.015015   0.052350   0.053718
   69  C 18  S    0.167638  -0.201594  -0.080845  -0.210657   0.164003
   70  C 18  X    0.027741  -0.010109  -0.019049  -0.062697  -0.035786
   71  C 18  Y   -0.001945   0.000857   0.053280   0.014279   0.013606
   72  C 18  Z    0.041721  -0.063115  -0.020429  -0.010095   0.073560
   73  C 19  S    0.168784  -0.100920   0.241186  -0.092767  -0.166587
   74  C 19  X    0.017589   0.032330   0.038086  -0.039016  -0.093329
   75  C 19  Y   -0.033510   0.028026  -0.023063   0.034354  -0.009598
   76  C 19  Z    0.030661  -0.028924   0.056104   0.041861  -0.017468
   77  C 20  S    0.159210  -0.027332   0.151786  -0.237046  -0.160033
   78  C 20  X    0.006801   0.045071   0.014119  -0.022242  -0.036799
   79  C 20  Y   -0.010287   0.006076   0.037593   0.038896  -0.040232
   80  C 20  Z    0.040990  -0.008716   0.056484  -0.030343  -0.048580
   81  C 21  S    0.154298  -0.087823  -0.025160  -0.275710  -0.015955
   82  C 21  X    0.002780   0.040514   0.008956  -0.016508  -0.045331
   83  C 21  Y   -0.004812   0.010030   0.060868   0.014762  -0.017337
   84  C 21  Z    0.039885  -0.029461  -0.007625  -0.051104   0.005834
   85  C 22  S    0.180702   0.220448   0.063632  -0.189541   0.099821
   86  C 22  X   -0.022667   0.002222  -0.016051   0.051755   0.051134
   87  C 22  Y   -0.003384  -0.010132   0.051373  -0.008330  -0.045960
   88  C 22  Z    0.045572   0.071875   0.015923  -0.007324   0.057495
   89  C 23  S    0.164207   0.156673  -0.076747  -0.164696   0.056318
   90  C 23  X   -0.011311   0.031421   0.019599   0.041089   0.057858
   91  C 23  Y    0.019365   0.030647   0.035091  -0.038574   0.030794
   92  C 23  Z    0.039485   0.054265  -0.026451   0.004791   0.032967
   93  C 24  S    0.155149  -0.009051  -0.128841  -0.243736  -0.060877
   94  C 24  X   -0.009610   0.054846   0.021152   0.032109   0.006308
   95  C 24  Y    0.012816   0.005704   0.030515  -0.039845   0.014708
   96  C 24  Z    0.036816   0.001398  -0.043717  -0.028534  -0.020222
   97  C 25  S    0.177587   0.118335   0.185753  -0.231561  -0.143184
   98  C 25  X   -0.009915   0.042942  -0.026106   0.024925   0.076542
   99  C 25  Y   -0.018398  -0.025042   0.020662   0.036647  -0.043831
  100  C 25  Z    0.041579   0.037912   0.054028  -0.018579  -0.024169
  101  C 26  S    0.184777   0.282082   0.057169  -0.056352   0.235005
  102  C 26  X   -0.056221  -0.073668  -0.027230   0.027174  -0.032475
  103  C 26  Y   -0.017235  -0.035629   0.039435  -0.012683  -0.065447
  104  C 26  Z    0.011777   0.023027  -0.003328   0.048749   0.034851
  105  C 27  S    0.173754   0.211879   0.143517  -0.012474   0.066296
  106  C 27  X   -0.030701  -0.009798  -0.046318  -0.001075   0.054484
  107  C 27  Y   -0.039994  -0.068570   0.002935  -0.013402  -0.081565
  108  C 27  Z   -0.019636  -0.026875  -0.027212   0.059445   0.007412
  109  C 28  S    0.172159   0.114540   0.236344  -0.109092  -0.178726
  110  C 28  X   -0.020036   0.032537  -0.050710   0.009294   0.094331
  111  C 28  Y   -0.047637  -0.050100  -0.043604   0.035319  -0.000728
  112  C 28  Z    0.003659   0.002932   0.004155   0.048108   0.013600
  113  C 29  S    0.172689   0.128503  -0.175354   0.227132  -0.121900
  114  C 29  X   -0.009866   0.040324   0.026758  -0.026784   0.087474
  115  C 29  Y    0.019398   0.026500   0.017775   0.036387   0.041975
  116  C 29  Z   -0.042184  -0.040467   0.052624  -0.020913   0.017290
  117  C 30  S    0.175431   0.224741  -0.059893   0.182007   0.119666
  118  C 30  X   -0.024192  -0.003998   0.015977  -0.051524   0.046117
  119  C 30  Y    0.003691   0.009021   0.046760  -0.007983   0.035719
  120  C 30  Z   -0.046791  -0.074383   0.015164  -0.009892  -0.064282
  121  C 31  S    0.164207   0.163916   0.074470   0.157861   0.055348
  122  C 31  X   -0.010794   0.030368  -0.018721  -0.039741   0.059475
  123  C 31  Y   -0.019434  -0.032723   0.035529  -0.038771  -0.035716
  124  C 31  Z   -0.039349  -0.053976  -0.027040   0.007077  -0.030955
  125  C 32  S    0.182111   0.281871  -0.056610   0.056636   0.248463
  126  C 32  X   -0.057352  -0.077597   0.026937  -0.026234  -0.042043
  127  C 32  Y    0.017834   0.035303   0.036305  -0.010993   0.057299
  128  C 32  Z   -0.010991  -0.020262  -0.002830   0.047682  -0.030872

                      6          7          8          9         10
                   -1.3808    -1.2953    -1.2895    -1.2433    -1.1187
                     A          A          A          A          A   
    1  C  1  S    0.041130   0.053017   0.224229  -0.219268   0.124006
    2  C  1  X   -0.085707   0.054435  -0.002066   0.015721   0.069101
    3  C  1  Y   -0.001463  -0.005957   0.094438   0.021226  -0.001075
    4  C  1  Z    0.036288   0.013799  -0.070945  -0.088130   0.019592
    5  C  2  S    0.196765  -0.094640   0.119781  -0.152052  -0.157446
    6  C  2  X    0.002640   0.022077   0.086409  -0.050883   0.077059
    7  C  2  Y    0.007053  -0.061729   0.022931   0.059446  -0.046040
    8  C  2  Z    0.069733   0.024745  -0.105284  -0.058016  -0.081461
    9  C  3  S   -0.016506   0.052428  -0.080928  -0.207710   0.232861
   10  C  3  X   -0.108861  -0.010006  -0.005443   0.039576   0.030524
   11  C  3  Y   -0.004167   0.009930  -0.010951  -0.024867   0.032444
   12  C  3  Z    0.004208  -0.030157  -0.101755   0.071095   0.023164
   13  C  4  S   -0.246513  -0.059961  -0.117173  -0.069627   0.043459
   14  C  4  X   -0.041583  -0.027494   0.033035   0.009558  -0.159901
   15  C  4  Y   -0.062889  -0.037264  -0.009877   0.016777  -0.065783
   16  C  4  Z    0.029622  -0.077502  -0.043894   0.079077   0.019223
   17  C  5  S   -0.295091   0.083171  -0.029879  -0.112250  -0.247592
   18  C  5  X    0.054761  -0.024987  -0.009515   0.011481  -0.032473
   19  C  5  Y   -0.017644   0.039634  -0.003749  -0.005243  -0.063221
   20  C  5  Z   -0.032754  -0.118379  -0.031900  -0.004000  -0.042137
   21  C  6  S    0.258993   0.029465  -0.170907  -0.093318  -0.278226
   22  C  6  X    0.045985   0.024413  -0.015851  -0.040416   0.024457
   23  C  6  Y    0.019782  -0.001503  -0.039116   0.050328  -0.070979
   24  C  6  Z   -0.025973   0.058705  -0.047306   0.067947   0.038362
   25  C  7  S    0.094166   0.068321  -0.206110   0.044995  -0.114028
   26  C  7  X    0.030137   0.038696  -0.028292   0.019516  -0.032814
   27  C  7  Y   -0.093190   0.022477   0.004767   0.012307   0.165020
   28  C  7  Z   -0.010312   0.090692   0.012599   0.030356   0.018858
   29  C  8  S   -0.010642   0.273042  -0.012902   0.107498   0.018972
   30  C  8  X    0.014093   0.058160   0.080137   0.043607  -0.044971
   31  C  8  Y   -0.069496   0.013390   0.067279  -0.065959   0.076548
   32  C  8  Z    0.027775  -0.006537   0.061909   0.026357  -0.053897
   33  C  9  S    0.160963   0.068856  -0.215169  -0.022212   0.049025
   34  C  9  X   -0.059257  -0.021365  -0.017936   0.029901   0.141352
   35  C  9  Y    0.036848   0.022947  -0.032338   0.064776  -0.045972
   36  C  9  Z   -0.039303  -0.002219  -0.004570   0.123707   0.005058
   37  C 10  S    0.070084   0.018085  -0.111441   0.298663   0.068921
   38  C 10  X   -0.050554  -0.086557   0.018951   0.021098   0.046381
   39  C 10  Y    0.021697   0.025043   0.078018   0.075655  -0.061861
   40  C 10  Z   -0.007696  -0.001736   0.056653  -0.001577  -0.034151
   41  C 11  S    0.085899   0.193623   0.140469   0.282265  -0.079356
   42  C 11  X    0.013994  -0.075406   0.051889   0.032194   0.009459
   43  C 11  Y   -0.022238   0.039041   0.105343  -0.065581  -0.018661
   44  C 11  Z   -0.011251  -0.043940  -0.008852  -0.029091   0.008825
   45  C 12  S   -0.188193   0.154014   0.051318  -0.150046   0.145906
   46  C 12  X   -0.006640   0.027700   0.087037  -0.047993  -0.086794
   47  C 12  Y   -0.003304  -0.068902   0.015515  -0.062151  -0.047266
   48  C 12  Z    0.071132   0.076644   0.073325   0.060847  -0.083713
   49  C 13  S   -0.046633   0.082416   0.221329  -0.214131  -0.131720
   50  C 13  X    0.084600  -0.047719   0.025782   0.015958  -0.057563
   51  C 13  Y   -0.005106  -0.058849  -0.075318  -0.027568  -0.001268
   52  C 13  Z    0.042380   0.050420   0.050593   0.089744   0.021883
   53  C 14  S   -0.009406  -0.094862  -0.034800  -0.210012  -0.232838
   54  C 14  X    0.109664   0.005456  -0.014217   0.039015  -0.022136
   55  C 14  Y    0.001921   0.015330   0.002752   0.026536   0.033266
   56  C 14  Z    0.009996   0.036289   0.096896  -0.069220   0.024203
   57  C 15  S    0.117983   0.048196   0.337546   0.066743  -0.085271
   58  C 15  X    0.050354  -0.114924  -0.011820  -0.006160   0.047165
   59  C 15  Y   -0.012760   0.005344  -0.005290  -0.107543  -0.016620
   60  C 15  Z   -0.019820   0.003200  -0.042999   0.042042   0.013887
   61  C 16  S   -0.252732  -0.108753  -0.120557  -0.100336   0.280868
   62  C 16  X   -0.056525  -0.031481   0.002419  -0.043179  -0.026274
   63  C 16  Y    0.010401   0.014294   0.035295  -0.048045  -0.077027
   64  C 16  Z   -0.020388   0.078356   0.005898  -0.064507   0.035940
   65  C 17  S   -0.066102  -0.156199  -0.134313   0.041272   0.133682
   66  C 17  X   -0.027192  -0.046858  -0.003988   0.018354   0.032212
   67  C 17  Y   -0.095476   0.015712  -0.012984  -0.014329   0.157843
   68  C 17  Z   -0.005541   0.069397  -0.062082  -0.028885   0.027044
   69  C 18  S    0.031264  -0.229877   0.135931   0.099599  -0.025486
   70  C 18  X   -0.016127  -0.011300   0.099971   0.041422   0.035678
   71  C 18  Y   -0.068734  -0.027605  -0.058764   0.064433   0.079595
   72  C 18  Z    0.035555  -0.033772  -0.050269  -0.024840  -0.049137
   73  C 19  S   -0.189933  -0.188333  -0.128407  -0.033953  -0.055454
   74  C 19  X    0.048908   0.000047  -0.024882   0.030363  -0.143796
   75  C 19  Y    0.038709   0.039036   0.013740  -0.062554  -0.045173
   76  C 19  Z   -0.040795   0.005961   0.006291  -0.122713   0.005396
   77  C 20  S   -0.098979  -0.105728  -0.069864   0.294810  -0.075460
   78  C 20  X    0.046787   0.078786  -0.032732   0.027403  -0.046017
   79  C 20  Y    0.014991  -0.023467  -0.079902  -0.076432  -0.062681
   80  C 20  Z   -0.015331  -0.035114  -0.044709  -0.000716  -0.035287
   81  C 21  S   -0.086572  -0.099842   0.231773   0.274723   0.069596
   82  C 21  X   -0.019911   0.088453   0.002700   0.035242  -0.004574
   83  C 21  Y   -0.028600  -0.029401  -0.105444   0.065682  -0.016948
   84  C 21  Z   -0.010275  -0.031801   0.031011   0.028206   0.006533
   85  C 22  S    0.027640   0.309620  -0.106807   0.092857   0.045212
   86  C 22  X    0.010299  -0.032179  -0.004806  -0.079539   0.005758
   87  C 22  Y    0.108721  -0.044963  -0.057323   0.023610   0.095503
   88  C 22  Z    0.037701   0.020438  -0.032891  -0.047152   0.031003
   89  C 23  S   -0.205267   0.315027   0.081115   0.025994  -0.085867
   90  C 23  X    0.008696  -0.004030  -0.074472  -0.037612  -0.066309
   91  C 23  Y    0.029765   0.052546  -0.029786   0.064675   0.003587
   92  C 23  Z   -0.052405   0.026454  -0.021414  -0.047970  -0.055076
   93  C 24  S   -0.116147   0.141250   0.309814   0.065867   0.096600
   94  C 24  X   -0.050965   0.092285  -0.072612   0.000536  -0.032725
   95  C 24  Y   -0.013709   0.003282   0.002804   0.110085  -0.018731
   96  C 24  Z   -0.020179   0.030126   0.033740  -0.041947   0.017334
   97  C 25  S    0.103571   0.109545  -0.187543   0.198752  -0.024032
   98  C 25  X    0.062907   0.078782  -0.004999  -0.057150   0.107632
   99  C 25  Y    0.025759  -0.078437  -0.025798  -0.065002  -0.044852
  100  C 25  Z    0.068981   0.000940  -0.046077  -0.042648   0.015199
  101  C 26  S    0.130902   0.081095  -0.073780  -0.094345   0.144508
  102  C 26  X   -0.050337  -0.035709   0.024658   0.002961  -0.051783
  103  C 26  Y    0.101527  -0.014558  -0.011488   0.018264   0.134262
  104  C 26  Z    0.030525  -0.120055   0.047792  -0.037101   0.032669
  105  C 27  S    0.309245  -0.065795   0.013066  -0.111095   0.261251
  106  C 27  X   -0.050790   0.012647  -0.018636   0.012472   0.022649
  107  C 27  Y   -0.027677   0.027805  -0.018315   0.006640  -0.061252
  108  C 27  Z   -0.031778  -0.077600   0.094446  -0.004044  -0.036156
  109  C 28  S    0.232252  -0.019994  -0.131319  -0.070812  -0.028671
  110  C 28  X    0.048335   0.045426   0.010096   0.014744   0.159154
  111  C 28  Y   -0.068575  -0.025714   0.033568  -0.017327  -0.067162
  112  C 28  Z    0.032525  -0.029379   0.074584  -0.076230   0.025448
  113  C 29  S   -0.119186  -0.217386  -0.081033   0.188808   0.021279
  114  C 29  X   -0.047108  -0.057449   0.039907  -0.063931  -0.103211
  115  C 29  Y    0.028090  -0.050545   0.063836   0.055891  -0.041906
  116  C 29  Z    0.069382   0.027545   0.038592   0.038047   0.012664
  117  C 30  S   -0.018627  -0.313198   0.087200   0.067380  -0.047962
  118  C 30  X   -0.003651   0.034574  -0.024360  -0.074922  -0.010519
  119  C 30  Y    0.107242  -0.000292   0.066843  -0.022073   0.094641
  120  C 30  Z    0.029610   0.034479   0.014580   0.047183   0.034636
  121  C 31  S    0.212141  -0.209652   0.238442   0.012019   0.109413
  122  C 31  X   -0.005653  -0.032750  -0.064105  -0.039020   0.057805
  123  C 31  Y    0.031558   0.062692  -0.005252  -0.058157   0.013709
  124  C 31  Z   -0.056338   0.024082   0.005648   0.048952  -0.058042
  125  C 32  S   -0.110655  -0.097228  -0.018643  -0.101674  -0.168677
  126  C 32  X    0.048078   0.039361   0.002081   0.008236   0.052419
  127  C 32  Y    0.099716  -0.004040   0.017176  -0.017303   0.116358
  128  C 32  Z    0.027926  -0.127595   0.030314   0.030612   0.036987

                     11         12         13         14         15
                   -1.1021    -1.0517    -1.0326    -0.9968    -0.9920
                     A          A          A          A          A   
    1  C  1  S   -0.033039   0.190606  -0.071072   0.073834   0.038837
    2  C  1  X    0.083649   0.042604   0.115159  -0.003093  -0.087581
    3  C  1  Y    0.013211  -0.000083  -0.046286   0.116110  -0.031900
    4  C  1  Z   -0.046242   0.024680   0.034984  -0.147954   0.063532
    5  C  2  S   -0.037013  -0.064919  -0.163430   0.035148   0.172047
    6  C  2  X   -0.063652   0.085071  -0.066697   0.041864  -0.008832
    7  C  2  Y    0.088387  -0.112888  -0.035713   0.022247  -0.046895
    8  C  2  Z   -0.052168   0.034073   0.110915  -0.074206   0.089624
    9  C  3  S    0.017944   0.057458   0.036769  -0.264604  -0.004807
   10  C  3  X    0.170897  -0.031128  -0.002667  -0.027702  -0.079125
   11  C  3  Y    0.001061   0.002494   0.004719  -0.006904  -0.007211
   12  C  3  Z   -0.015758  -0.118411  -0.019666  -0.016423  -0.020763
   13  C  4  S    0.300478  -0.006643  -0.080716  -0.186960  -0.040959
   14  C  4  X    0.018406   0.049831  -0.038876   0.047899   0.012818
   15  C  4  Y    0.037040   0.006779  -0.035720   0.044090   0.029014
   16  C  4  Z   -0.034431  -0.054644  -0.091952   0.087997   0.091976
   17  C  5  S    0.128495  -0.029952   0.037354  -0.107990  -0.162666
   18  C  5  X   -0.111821  -0.020119  -0.069924   0.014279   0.001236
   19  C  5  Y   -0.107861  -0.055042   0.005158   0.031564  -0.015078
   20  C  5  Z    0.040192   0.073134  -0.155716  -0.040130   0.028520
   21  C  6  S   -0.119796   0.050737   0.141135  -0.007761   0.093829
   22  C  6  X   -0.115145   0.016734  -0.004868  -0.024386   0.004604
   23  C  6  Y    0.096669   0.003910   0.035561   0.050112  -0.045762
   24  C  6  Z   -0.038396   0.055331   0.048225   0.043249  -0.133056
   25  C  7  S    0.185789   0.180275   0.143839   0.079722  -0.044048
   26  C  7  X   -0.014736   0.048506  -0.003168   0.015086  -0.041049
   27  C  7  Y    0.069187   0.067542  -0.041173   0.003854  -0.007438
   28  C  7  Z   -0.069756   0.133410  -0.049299   0.043570  -0.093066
   29  C  8  S    0.065515   0.295042  -0.169704  -0.006356  -0.132622
   30  C  8  X   -0.049947  -0.054341  -0.081468  -0.069755  -0.032293
   31  C  8  Y    0.007981  -0.015328  -0.093134  -0.070384   0.120673
   32  C  8  Z   -0.053845  -0.074831  -0.038191  -0.047704  -0.032814
   33  C  9  S   -0.245848  -0.061989   0.085936  -0.033302  -0.075830
   34  C  9  X    0.052383  -0.090126  -0.045966  -0.019362  -0.029765
   35  C  9  Y   -0.031825  -0.017796   0.019638   0.084980  -0.068590
   36  C  9  Z    0.035656  -0.071140  -0.014686   0.116049  -0.106303
   37  C 10  S   -0.121296  -0.221544   0.003278   0.249204  -0.140157
   38  C 10  X    0.074245  -0.050442  -0.023593   0.038593   0.144414
   39  C 10  Y   -0.007049   0.029181   0.005291   0.028598  -0.010761
   40  C 10  Z    0.018327   0.030094  -0.001426   0.006644   0.020204
   41  C 11  S   -0.066079  -0.031446  -0.085797  -0.032744  -0.155822
   42  C 11  X   -0.000989  -0.109394   0.091756   0.003917   0.095190
   43  C 11  Y    0.051703   0.031645  -0.052849  -0.185035   0.091742
   44  C 11  Z    0.003418  -0.017885   0.021403   0.007271   0.031132
   45  C 12  S   -0.051556   0.065787  -0.177842   0.047491   0.161323
   46  C 12  X   -0.048166  -0.092360  -0.061122  -0.043562   0.022871
   47  C 12  Y   -0.071548  -0.125766   0.039321   0.051746   0.036939
   48  C 12  Z    0.050238   0.038286  -0.101233  -0.118246  -0.034221
   49  C 13  S    0.000535  -0.190784  -0.064823  -0.047415   0.087757
   50  C 13  X    0.092000  -0.033133   0.121278  -0.037035  -0.076056
   51  C 13  Y   -0.010851  -0.005750   0.040179   0.122373  -0.034269
   52  C 13  Z    0.036953   0.030009  -0.024525  -0.160748   0.021335
   53  C 14  S    0.045906  -0.058473   0.034033   0.224557  -0.135801
   54  C 14  X    0.167789   0.049846  -0.005568  -0.019441  -0.085159
   55  C 14  Y   -0.002232   0.004101  -0.004488  -0.002343   0.006102
   56  C 14  Z    0.028395  -0.113903   0.013298   0.003018   0.033450
   57  C 15  S    0.070081  -0.127564   0.153332  -0.276655   0.093125
   58  C 15  X    0.027903   0.023442   0.190499   0.050137   0.021852
   59  C 15  Y    0.038528  -0.025246  -0.013939  -0.030132  -0.010384
   60  C 15  Z   -0.025796   0.024292  -0.027603   0.021053   0.002659
   61  C 16  S   -0.121119  -0.062634   0.125691   0.071324   0.072548
   62  C 16  X   -0.110835  -0.032316  -0.002268   0.027740  -0.003160
   63  C 16  Y   -0.092607  -0.012619  -0.032731   0.063733   0.014028
   64  C 16  Z    0.029261   0.065358  -0.058669   0.098545   0.085461
   65  C 17  S    0.202133  -0.156086   0.143289  -0.084517   0.010287
   66  C 17  X   -0.005673  -0.049120  -0.000613  -0.031976  -0.024158
   67  C 17  Y   -0.084718   0.058803   0.029629   0.012141  -0.005558
   68  C 17  Z    0.051301   0.140312   0.043800   0.081162   0.047780
   69  C 18  S    0.109107  -0.291261  -0.164476  -0.070325  -0.094643
   70  C 18  X   -0.055218   0.039788  -0.091637   0.036427  -0.069013
   71  C 18  Y   -0.006477  -0.022648   0.089811  -0.113798  -0.068449
   72  C 18  Z    0.065019  -0.061517   0.046965  -0.020810   0.059704
   73  C 19  S   -0.247463   0.020685   0.100150   0.000622  -0.084809
   74  C 19  X    0.046426   0.096018  -0.036746  -0.008598  -0.039945
   75  C 19  Y    0.038156  -0.013613  -0.023142   0.105541   0.015760
   76  C 19  Z   -0.024148  -0.072712   0.004050   0.154941   0.038998
   77  C 20  S   -0.153645   0.200126   0.026731  -0.287634  -0.011578
   78  C 20  X    0.062577   0.073040  -0.020929   0.032979   0.140287
   79  C 20  Y    0.003757   0.032419   0.006315   0.025220  -0.008380
   80  C 20  Z   -0.021171   0.027133   0.008281  -0.005886  -0.017638
   81  C 21  S   -0.068017   0.008932  -0.103999  -0.052779  -0.158332
   82  C 21  X   -0.017730   0.116197   0.088499   0.051012   0.075182
   83  C 21  Y   -0.056057   0.021235   0.066863  -0.199235   0.014564
   84  C 21  Z   -0.000981  -0.018923  -0.019994  -0.013011  -0.026332
   85  C 22  S   -0.061525  -0.214720   0.002393   0.013137   0.282464
   86  C 22  X   -0.048957  -0.062877  -0.057968  -0.008461  -0.123955
   87  C 22  Y    0.064217   0.052017  -0.155627  -0.030942   0.083850
   88  C 22  Z   -0.032782  -0.057794  -0.068378  -0.010881  -0.064202
   89  C 23  S    0.035300  -0.096352   0.341443   0.128372   0.014127
   90  C 23  X   -0.053329  -0.104642  -0.055115  -0.086756  -0.014545
   91  C 23  Y   -0.073379  -0.069763  -0.013177   0.006025   0.131246
   92  C 23  Z    0.013463  -0.039822   0.001165  -0.049978  -0.062320
   93  C 24  S    0.053404   0.138677   0.119154   0.293383  -0.075474
   94  C 24  X    0.032828  -0.015530   0.194575  -0.016210   0.046444
   95  C 24  Y   -0.034277  -0.029725   0.011539  -0.016530   0.025003
   96  C 24  Z    0.022050   0.027233   0.029756   0.016385  -0.011977
   97  C 25  S    0.089049   0.118660  -0.113235  -0.077930   0.279918
   98  C 25  X    0.053087  -0.131402  -0.059382   0.076598   0.073259
   99  C 25  Y    0.053316   0.050633  -0.042834   0.030945  -0.134406
  100  C 25  Z    0.076205  -0.018108  -0.055011   0.052516  -0.044811
  101  C 26  S   -0.214105  -0.115727  -0.155374  -0.034506  -0.127954
  102  C 26  X   -0.011826   0.033784   0.018326  -0.005122  -0.034089
  103  C 26  Y    0.117422   0.023739  -0.020909   0.023933   0.041861
  104  C 26  Z   -0.051283   0.132871   0.018112  -0.009257  -0.115023
  105  C 27  S    0.107647   0.020621   0.023256   0.005847  -0.193277
  106  C 27  X   -0.113979   0.009202  -0.062189  -0.011574   0.009509
  107  C 27  Y    0.117256  -0.034395  -0.008657   0.034779  -0.001104
  108  C 27  Z   -0.045371   0.061731   0.160861  -0.042623  -0.018952
  109  C 28  S    0.299868   0.037407  -0.090590   0.129247  -0.135851
  110  C 28  X    0.005675  -0.045633  -0.043005  -0.037110   0.040867
  111  C 28  Y   -0.035957   0.000931   0.041710   0.023000  -0.047740
  112  C 28  Z    0.041743  -0.058523   0.081246   0.030123  -0.113167
  113  C 29  S    0.113851  -0.076369  -0.121650   0.206015   0.217406
  114  C 29  X    0.037765   0.145452  -0.043027  -0.033904   0.089658
  115  C 29  Y   -0.050140   0.052467   0.046483   0.089904   0.088467
  116  C 29  Z   -0.073526  -0.021418   0.054114   0.067823   0.009772
  117  C 30  S   -0.077082   0.231605   0.006876   0.131176   0.226238
  118  C 30  X   -0.055376   0.040555  -0.057242  -0.057698  -0.115163
  119  C 30  Y   -0.080262   0.031509   0.150829  -0.055146  -0.061481
  120  C 30  Z    0.039921  -0.050446   0.066845   0.027361   0.062391
  121  C 31  S    0.008366   0.101509   0.348583  -0.081459   0.059024
  122  C 31  X   -0.070507   0.091149  -0.066181   0.061896  -0.061174
  123  C 31  Y    0.076941  -0.069792   0.015030  -0.064228  -0.110351
  124  C 31  Z   -0.002239  -0.028484   0.007752  -0.003463   0.083540
  125  C 32  S   -0.205928   0.082809  -0.153527  -0.040952  -0.135514
  126  C 32  X   -0.010495  -0.033060   0.019747  -0.006673  -0.024281
  127  C 32  Y   -0.132843   0.005930   0.018586   0.005793  -0.049873
  128  C 32  Z    0.033914   0.146779  -0.015399   0.049361   0.097129

                     16         17         18         19         20
                   -0.9627    -0.8923    -0.8861    -0.8363    -0.8270
                     A          A          A          A          A   
    1  C  1  S    0.270678  -0.059172   0.018959  -0.017172  -0.181049
    2  C  1  X   -0.022759  -0.046792  -0.126546   0.158679  -0.119994
    3  C  1  Y   -0.012965   0.011966  -0.008732  -0.047697   0.009225
    4  C  1  Z    0.040882  -0.015104   0.039714   0.046962  -0.004850
    5  C  2  S    0.136386   0.023188  -0.036611  -0.159013   0.216455
    6  C  2  X    0.083798   0.010884   0.124820  -0.073980  -0.078969
    7  C  2  Y   -0.049340  -0.057442  -0.110540   0.007571   0.077743
    8  C  2  Z   -0.040162   0.078237  -0.012729   0.085798  -0.014891
    9  C  3  S    0.027973  -0.190072  -0.043084   0.055109  -0.087639
   10  C  3  X   -0.034732  -0.034403  -0.227368  -0.068221  -0.019722
   11  C  3  Y   -0.000479  -0.012056  -0.000503   0.005866  -0.000217
   12  C  3  Z   -0.174519  -0.050001   0.046881  -0.053436   0.129678
   13  C  4  S   -0.088011   0.087180  -0.203539  -0.116359  -0.020636
   14  C  4  X    0.036714   0.224736   0.083886   0.017078   0.008035
   15  C  4  Y   -0.003921   0.096110   0.047237  -0.007605   0.010408
   16  C  4  Z   -0.100904  -0.059653   0.073356  -0.052980  -0.023291
   17  C  5  S    0.098543   0.214784   0.092112  -0.084220   0.132893
   18  C  5  X   -0.000280  -0.068962   0.138157  -0.017720  -0.066987
   19  C  5  Y    0.023043  -0.095587   0.130714  -0.027585   0.009269
   20  C  5  Z   -0.050343   0.101241   0.033609   0.029469  -0.137989
   21  C  6  S   -0.155328   0.223718  -0.069145   0.012082  -0.032812
   22  C  6  X    0.005812   0.072829   0.159257   0.051662   0.059828
   23  C  6  Y   -0.049713  -0.049546  -0.168738  -0.055241  -0.103732
   24  C  6  Z   -0.088008   0.055631   0.058773   0.019114  -0.124506
   25  C  7  S   -0.122136  -0.109781  -0.115199  -0.162115  -0.252307
   26  C  7  X   -0.023530   0.045270  -0.016133  -0.034466  -0.010258
   27  C  7  Y    0.077724  -0.135003   0.179753  -0.048145   0.039821
   28  C  7  Z   -0.030100   0.079847   0.040947  -0.143925  -0.025059
   29  C  8  S   -0.002213  -0.048779   0.000029  -0.124751   0.094631
   30  C  8  X    0.065446   0.059460  -0.076044   0.158558   0.066639
   31  C  8  Y   -0.021081  -0.051466   0.070848   0.039996   0.208124
   32  C  8  Z    0.051888   0.058537  -0.071336   0.124099   0.028885
   33  C  9  S   -0.185719   0.049804   0.232311   0.121992   0.095575
   34  C  9  X   -0.003829  -0.204351  -0.020349  -0.035600   0.055596
   35  C  9  Y   -0.014542   0.068190  -0.022901   0.011467  -0.007984
   36  C  9  Z   -0.023512  -0.019897  -0.055997  -0.017033   0.025480
   37  C 10  S    0.074824  -0.043887   0.021325   0.023545   0.066668
   38  C 10  X    0.014605  -0.100308  -0.025716  -0.113228  -0.005724
   39  C 10  Y    0.186107   0.080657  -0.060396   0.041559  -0.076559
   40  C 10  Z    0.083919   0.030117  -0.033718   0.005933  -0.036990
   41  C 11  S    0.302930   0.086441  -0.107626   0.143661  -0.028582
   42  C 11  X    0.086773  -0.014545   0.030742  -0.030656  -0.072109
   43  C 11  Y   -0.026361  -0.030822  -0.005471   0.012343   0.011068
   44  C 11  Z    0.000572  -0.004247   0.007023  -0.004528  -0.007173
   45  C 12  S   -0.131950   0.013377   0.019700  -0.022510   0.264803
   46  C 12  X   -0.082684   0.010462  -0.123872   0.113491  -0.024299
   47  C 12  Y   -0.047122   0.062966  -0.097698   0.061640  -0.066814
   48  C 12  Z   -0.038655  -0.079698  -0.024592   0.058657   0.066587
   49  C 13  S   -0.266501  -0.061881  -0.013019   0.113931  -0.139773
   50  C 13  X    0.021081  -0.043314   0.135085  -0.056393  -0.183906
   51  C 13  Y   -0.019964  -0.010939  -0.004977  -0.021359  -0.036617
   52  C 13  Z    0.045840   0.013817   0.036682   0.019862   0.030117
   53  C 14  S   -0.036294  -0.192495   0.038194   0.017874  -0.090991
   54  C 14  X    0.034978  -0.051755   0.223882   0.056376   0.045123
   55  C 14  Y    0.002835   0.011682   0.004679   0.006515   0.007702
   56  C 14  Z   -0.172096   0.046440   0.058680   0.042675  -0.132163
   57  C 15  S    0.093893   0.006712   0.077165  -0.083746  -0.181937
   58  C 15  X   -0.001589   0.012063   0.069298  -0.209081   0.002637
   59  C 15  Y   -0.170813  -0.027509   0.059347   0.006675  -0.040893
   60  C 15  Z    0.070376   0.008433  -0.035298   0.020536   0.027155
   61  C 16  S    0.155720   0.213386   0.096927   0.019736  -0.026996
   62  C 16  X   -0.006919   0.091664  -0.152648  -0.058770   0.006154
   63  C 16  Y   -0.047544   0.070481  -0.165376  -0.084885   0.031567
   64  C 16  Z   -0.087294  -0.059557   0.045350  -0.084530   0.108353
   65  C 17  S    0.122243  -0.139362   0.120636   0.270369  -0.088241
   66  C 17  X    0.020941   0.036189   0.018077   0.039726   0.014202
   67  C 17  Y    0.077182   0.123640   0.189356  -0.015499  -0.043890
   68  C 17  Z   -0.025312  -0.070229   0.041719  -0.148269  -0.076668
   69  C 18  S    0.003132  -0.061160  -0.021911   0.064233   0.162076
   70  C 18  X   -0.062262   0.067115   0.076853  -0.156503  -0.035536
   71  C 18  Y   -0.022501   0.034276   0.085419   0.175460  -0.122357
   72  C 18  Z    0.046961  -0.063627  -0.077278   0.100794   0.042718
   73  C 19  S    0.182023   0.081803  -0.229719  -0.132146  -0.015463
   74  C 19  X    0.000819  -0.205968  -0.006241  -0.033081   0.065238
   75  C 19  Y   -0.017885  -0.068572  -0.026268   0.005393   0.010273
   76  C 19  Z   -0.030038   0.020662  -0.048416   0.015245  -0.032023
   77  C 20  S   -0.070575  -0.025892  -0.028861  -0.086608   0.025432
   78  C 20  X   -0.016462  -0.114630   0.015576   0.058983   0.061289
   79  C 20  Y    0.186251  -0.078963  -0.077732  -0.029826   0.081928
   80  C 20  Z    0.082720  -0.028529  -0.042194  -0.022546   0.031627
   81  C 21  S   -0.295603   0.093266   0.121946  -0.079058  -0.098509
   82  C 21  X   -0.087671  -0.011465  -0.020114   0.044404  -0.051188
   83  C 21  Y   -0.028329   0.035666  -0.001005   0.024448  -0.004095
   84  C 21  Z   -0.001005   0.003229   0.003984  -0.003892   0.004867
   85  C 22  S    0.011567  -0.034525  -0.004882  -0.105225  -0.106338
   86  C 22  X    0.061015  -0.028836  -0.002131  -0.109116  -0.081571
   87  C 22  Y    0.010144   0.111067  -0.084287   0.063411  -0.143139
   88  C 22  Z    0.048472   0.001809  -0.021437  -0.071143  -0.074390
   89  C 23  S    0.003967  -0.018808  -0.000786   0.074820   0.246521
   90  C 23  X    0.073685  -0.029144   0.093268  -0.190988   0.043871
   91  C 23  Y   -0.061447  -0.072138   0.065665  -0.059096  -0.038212
   92  C 23  Z    0.070832   0.028347   0.024716  -0.088479   0.052021
   93  C 24  S   -0.092982  -0.000476  -0.058890   0.158670  -0.100284
   94  C 24  X   -0.008126   0.002551  -0.068612   0.172759   0.127633
   95  C 24  Y   -0.172985   0.028093   0.064335  -0.012988   0.042721
   96  C 24  Z    0.068322  -0.009859  -0.037764   0.031546  -0.010216
   97  C 25  S    0.055475  -0.030302  -0.000477   0.088454   0.024203
   98  C 25  X    0.012984   0.136077  -0.016689   0.029922  -0.111775
   99  C 25  Y    0.106718  -0.030813   0.031715   0.020801   0.065775
  100  C 25  Z    0.071333   0.044191   0.023223   0.026268   0.003833
  101  C 26  S    0.009709  -0.123133  -0.148143  -0.061406  -0.177796
  102  C 26  X   -0.004770  -0.062528   0.032785   0.028169   0.006110
  103  C 26  Y   -0.029414   0.196405  -0.137510   0.039520   0.033089
  104  C 26  Z   -0.070848  -0.051624  -0.069251   0.142390   0.109032
  105  C 27  S   -0.097695   0.221884  -0.095248  -0.015567   0.149184
  106  C 27  X    0.000991  -0.063507  -0.138178   0.043048  -0.040165
  107  C 27  Y    0.023992   0.086363   0.143643   0.003603  -0.012075
  108  C 27  Z   -0.058861  -0.097401   0.021655  -0.069827   0.122132
  109  C 28  S    0.087374   0.065479   0.206569   0.110239   0.076751
  110  C 28  X   -0.031511   0.225949  -0.074894  -0.004233  -0.009275
  111  C 28  Y   -0.010972  -0.098703   0.041841  -0.004501  -0.004785
  112  C 28  Z   -0.104126   0.064089   0.074877  -0.042146  -0.010450
  113  C 29  S   -0.046743  -0.010964   0.000138  -0.097932  -0.043433
  114  C 29  X   -0.011208   0.135999   0.036123   0.085130  -0.082127
  115  C 29  Y    0.102045   0.022666   0.035781   0.063030  -0.022157
  116  C 29  Z    0.072274  -0.049427   0.021122   0.018470   0.012299
  117  C 30  S   -0.014202  -0.042566   0.012122   0.182582   0.005314
  118  C 30  X   -0.057322  -0.038862  -0.001297   0.129613   0.001763
  119  C 30  Y    0.003964  -0.114697  -0.093897  -0.040621   0.140587
  120  C 30  Z    0.045838   0.008224  -0.016753  -0.097825   0.014430
  121  C 31  S   -0.017598  -0.012209  -0.008767  -0.199073   0.150761
  122  C 31  X   -0.072752  -0.039448  -0.106809   0.132764   0.147832
  123  C 31  Y   -0.060676   0.076435   0.059029  -0.085005  -0.008141
  124  C 31  Z    0.071045  -0.027133   0.037103  -0.031941  -0.084939
  125  C 32  S   -0.005638  -0.129918   0.149603   0.139334  -0.103085
  126  C 32  X    0.002169  -0.057333  -0.034382  -0.024833  -0.013501
  127  C 32  Y   -0.029103  -0.197719  -0.132514   0.040089  -0.007394
  128  C 32  Z   -0.069963   0.043206  -0.066026   0.200724   0.015958

                     21         22         23         24         25
                   -0.8058    -0.8020    -0.7785    -0.7641    -0.7540
                     A          A          A          A          A   
    1  C  1  S   -0.049440   0.016915   0.106457  -0.054098  -0.220710
    2  C  1  X    0.016871  -0.006340  -0.031710   0.167483  -0.032424
    3  C  1  Y   -0.079482  -0.052581  -0.134981  -0.007850  -0.036750
    4  C  1  Z    0.105084   0.077459   0.176536  -0.000965   0.060411
    5  C  2  S   -0.097763   0.014938   0.060691  -0.195551   0.065316
    6  C  2  X    0.018986  -0.015989   0.015077  -0.050904  -0.120371
    7  C  2  Y    0.039117  -0.090170  -0.080062   0.045566   0.007967
    8  C  2  Z   -0.069571   0.139154   0.069866   0.041061   0.143473
    9  C  3  S    0.188417  -0.000534   0.084953   0.039389   0.128053
   10  C  3  X   -0.001321  -0.097445  -0.017758   0.011787   0.106523
   11  C  3  Y   -0.009503   0.000320  -0.010893   0.006045  -0.025918
   12  C  3  Z   -0.012498  -0.032950  -0.212194  -0.044193   0.113625
   13  C  4  S    0.021985  -0.098444  -0.038422  -0.091267   0.154644
[...]
   35  C  9  Y    0.211658  -0.135376   0.090229  -0.038525  -0.066391
   36  C  9  Z   -0.150693   0.134397  -0.030171  -0.036577   0.045582
   37  C 10  S    0.008904  -0.020652  -0.035903   0.038016  -0.055139
   38  C 10  X   -0.021308   0.057856   0.026211  -0.059217   0.040794
   39  C 10  Y   -0.008004   0.069435   0.084249  -0.048250   0.033845
   40  C 10  Z   -0.026646  -0.133587  -0.248861   0.224700  -0.106380
   41  C 11  S    0.006390   0.006206   0.035703  -0.062577   0.050906
   42  C 11  X   -0.029198   0.029890  -0.045312   0.026865   0.011447
   43  C 11  Y    0.004626  -0.003282  -0.022167   0.004683  -0.021941
   44  C 11  Z    0.011047   0.084233   0.238235  -0.296712   0.152219
   45  C 12  S   -0.033177   0.019626  -0.013456  -0.009194  -0.108981
   46  C 12  X    0.105276  -0.032966   0.009742   0.000126   0.141147
   47  C 12  Y   -0.123936   0.085873   0.015163   0.015857  -0.155225
   48  C 12  Z   -0.106609   0.021432   0.053944   0.027403  -0.105023
   49  C 13  S    0.038485  -0.031604  -0.016403  -0.045099   0.142746
   50  C 13  X   -0.025803   0.006992  -0.008743  -0.011836  -0.014167
   51  C 13  Y    0.138757  -0.163819  -0.105521  -0.099825   0.197626
   52  C 13  Z    0.100216  -0.107265  -0.106117  -0.067953   0.132470
   53  C 14  S    0.002177   0.019556  -0.017260   0.046118  -0.081485
   54  C 14  X    0.023758   0.003524  -0.031495  -0.024218   0.051913
   55  C 14  Y    0.137056   0.177383  -0.092533   0.119407  -0.029458
   56  C 14  Z    0.002336   0.022357   0.020044   0.032229  -0.045134
   57  C 15  S    0.002213  -0.009816   0.021987   0.017682  -0.043646
   58  C 15  X    0.025468  -0.032941   0.037169  -0.060661   0.096245
   59  C 15  Y    0.022516  -0.036003   0.092962   0.014343  -0.078449
   60  C 15  Z    0.094414  -0.172155   0.151971   0.040568  -0.071416
   61  C 16  S   -0.020796  -0.014716   0.075317   0.084576   0.057387
   62  C 16  X    0.100217   0.033459  -0.255604  -0.136861  -0.031961
   63  C 16  Y   -0.101648  -0.070412   0.203345   0.074048   0.020528
   64  C 16  Z    0.063015   0.012138  -0.092818  -0.048488   0.040523
   65  C 17  S   -0.029783  -0.030137  -0.038418  -0.099203  -0.035248
   66  C 17  X    0.147169   0.223887   0.160541   0.212638  -0.001379
   67  C 17  Y   -0.001135  -0.021474  -0.073541  -0.035878  -0.011919
   68  C 17  Z    0.035422   0.118566   0.059319   0.025008   0.007599
   69  C 18  S    0.028123   0.041713  -0.000112   0.013463   0.048693
   70  C 18  X   -0.066374  -0.202393   0.013920  -0.018306  -0.024501
   71  C 18  Y    0.019083   0.001685   0.000662   0.019828  -0.039725
   72  C 18  Z   -0.057194  -0.239756   0.073196   0.047037   0.006032
   73  C 19  S    0.045370   0.036476  -0.027267  -0.033665   0.035709
   74  C 19  X   -0.089627  -0.068632   0.078622   0.039529   0.020887
   75  C 19  Y    0.211885   0.135141  -0.089975  -0.038250   0.067914
   76  C 19  Z   -0.151033  -0.134115   0.029926  -0.036771  -0.047057
   77  C 20  S   -0.008859  -0.020676  -0.035924  -0.038116  -0.056512
   78  C 20  X    0.021334   0.057952   0.026474   0.059500   0.040762
   79  C 20  Y   -0.008439  -0.069447  -0.084179  -0.048379  -0.035826
   80  C 20  Z   -0.025691   0.133727   0.248605   0.224820   0.109105
   81  C 21  S   -0.006434   0.006266   0.035626   0.062522   0.050606
   82  C 21  X    0.029206   0.029700  -0.045472  -0.027073   0.012009
   83  C 21  Y    0.004695   0.003295   0.022131   0.004699   0.023128
   84  C 21  Z    0.011166  -0.084214  -0.238016  -0.296559  -0.151374
   85  C 22  S    0.007290   0.039332   0.020627   0.113484   0.123883
   86  C 22  X    0.072405   0.138044   0.029724   0.173779   0.150428
   87  C 22  Y    0.028239   0.031264  -0.008691   0.001387   0.005563
   88  C 22  Z   -0.142296  -0.182788  -0.055741  -0.218415  -0.132056
   89  C 23  S    0.015340   0.011516  -0.027503  -0.089951  -0.128741
   90  C 23  X    0.067811   0.063961  -0.081696  -0.158404  -0.158001
   91  C 23  Y   -0.066189  -0.093013   0.057821   0.067420   0.063928
   92  C 23  Z   -0.092083  -0.098201   0.174215   0.189201   0.081004
   93  C 24  S   -0.002176  -0.009729   0.022000  -0.017607  -0.042427
   94  C 24  X   -0.025410  -0.032794   0.037035   0.060743   0.096493
   95  C 24  Y    0.021877   0.035799  -0.092966   0.014216   0.076722
   96  C 24  Z    0.093144   0.171918  -0.152112   0.040217   0.068053
   97  C 25  S   -0.024804  -0.040863  -0.003274  -0.058639  -0.026173
   98  C 25  X   -0.079160  -0.083296  -0.007333  -0.081475  -0.053501
   99  C 25  Y   -0.125920  -0.103593   0.015025  -0.023881   0.021016
  100  C 25  Z    0.221084   0.151262  -0.067770   0.059114   0.067938
  101  C 26  S    0.056885  -0.003110   0.006002  -0.045411  -0.087779
  102  C 26  X    0.266699  -0.015684   0.054434  -0.030251  -0.134855
  103  C 26  Y    0.055347  -0.004232   0.035766   0.010479  -0.109147
  104  C 26  Z   -0.030977   0.036165  -0.006454   0.042859   0.062608
  105  C 27  S    0.002001  -0.023517  -0.023016  -0.044253   0.148296
  106  C 27  X    0.010356  -0.059807  -0.075930  -0.061986   0.171946
  107  C 27  Y    0.066767  -0.077274  -0.099911  -0.091091   0.157250
  108  C 27  Z    0.032757  -0.050591  -0.017823  -0.085332   0.096613
  109  C 28  S   -0.029042   0.004874   0.045847   0.022404  -0.043836
  110  C 28  X   -0.110936   0.003259   0.102539   0.044208  -0.101077
  111  C 28  Y   -0.227986  -0.057565   0.185761  -0.035886  -0.059502
  112  C 28  Z    0.024507  -0.012269  -0.034261  -0.001832  -0.017077
  113  C 29  S    0.024709  -0.040923  -0.003264   0.058670  -0.028306
  114  C 29  X    0.079030  -0.083509  -0.007233   0.081543  -0.054794
  115  C 29  Y   -0.125792   0.103778  -0.015176  -0.023890  -0.018041
  116  C 29  Z    0.220573  -0.151436   0.067925   0.059157  -0.070377
  117  C 30  S   -0.007304   0.039343   0.020696  -0.113522   0.124048
  118  C 30  X   -0.071705   0.138228   0.029864  -0.174039   0.149794
  119  C 30  Y    0.028221  -0.031300   0.008690   0.001477  -0.006081
  120  C 30  Z   -0.140585   0.182829   0.055779  -0.218430   0.133501
  121  C 31  S   -0.015132   0.011492  -0.027517   0.089911  -0.128972
  122  C 31  X   -0.068094   0.064027  -0.081934   0.158554  -0.158304
  123  C 31  Y   -0.066374   0.093021  -0.057872   0.067390  -0.063581
  124  C 31  Z   -0.092992   0.098225  -0.174338   0.188916  -0.078328
  125  C 32  S   -0.056375  -0.003057   0.005894   0.045464  -0.085830
  126  C 32  X   -0.264325  -0.015554   0.054247   0.030458  -0.131790
  127  C 32  Y    0.054163   0.004181  -0.035719   0.010361   0.108459
  128  C 32  Z   -0.030544  -0.036144   0.006372   0.042891  -0.062017

                     71         72         73         74
                   -0.0434    -0.0393    -0.0385    -0.0334
                     A          A          A          A   
    1  C  1  S    0.041975  -0.097600  -0.042745   0.055114
    2  C  1  X    0.013613  -0.029733   0.005280  -0.053936
    3  C  1  Y   -0.070042   0.104138   0.019556  -0.063863
    4  C  1  Z   -0.083442   0.011562  -0.017727  -0.119481
    5  C  2  S    0.008784   0.032402   0.032231  -0.150639
    6  C  2  X   -0.011916  -0.010173  -0.054582   0.182872
    7  C  2  Y    0.008670  -0.046116  -0.035198   0.154501
    8  C  2  Z    0.004091  -0.018525  -0.066126   0.090619
    9  C  3  S    0.012929   0.126844   0.077344   0.070176
   10  C  3  X    0.069366  -0.021565  -0.048484   0.011844
   11  C  3  Y   -0.039746  -0.269430  -0.137200  -0.148803
   12  C  3  Z    0.018483  -0.000352   0.030852   0.052403
   13  C  4  S   -0.142328  -0.083203   0.002986  -0.123628
   14  C  4  X   -0.120340  -0.044037   0.017592  -0.100260
   15  C  4  Y    0.131741   0.186354   0.043194   0.123384
   16  C  4  Z   -0.071991  -0.081005   0.050051  -0.032758
   17  C  5  S    0.121705  -0.090797  -0.000774   0.141231
   18  C  5  X    0.092691  -0.184471   0.010919   0.081605
   19  C  5  Y   -0.107376   0.027246   0.002857  -0.098873
   20  C  5  Z   -0.007330   0.069123   0.025790  -0.035094
   21  C  6  S   -0.001508  -0.009083   0.044577   0.130387
   22  C  6  X   -0.005005   0.020037  -0.048194  -0.066997
   23  C  6  Y    0.054121  -0.003707  -0.113317  -0.150374
   24  C  6  Z   -0.018159   0.007600   0.075907  -0.031478
   25  C  7  S   -0.096597   0.038294   0.032316   0.062049
   26  C  7  X    0.147307  -0.108293  -0.063667  -0.113100
   27  C  7  Y   -0.023450   0.003995   0.036361   0.084915
   28  C  7  Z   -0.040529   0.013798   0.082380   0.042333
   29  C  8  S    0.083909  -0.018924  -0.088504  -0.151894
   30  C  8  X   -0.116640   0.046539   0.147513   0.127041
   31  C  8  Y   -0.005664   0.028571  -0.009274  -0.048288
   32  C  8  Z    0.094960  -0.039225  -0.204456  -0.172705
   33  C  9  S    0.061371  -0.053463  -0.128830  -0.132470
   34  C  9  X   -0.029826  -0.011683   0.056715   0.065824
   35  C  9  Y   -0.114117   0.113252   0.217610   0.140436
   36  C  9  Z    0.098178  -0.031064  -0.142191  -0.097032
   37  C 10  S   -0.092426  -0.017241   0.096371   0.037873
   38  C 10  X   -0.005628  -0.075443  -0.007784  -0.050995
   39  C 10  Y    0.134885  -0.005614  -0.137555  -0.098369
   40  C 10  Z   -0.174822  -0.028520   0.128240   0.018275
   41  C 11  S   -0.025822  -0.004934   0.041452   0.084014
   42  C 11  X    0.053285  -0.029341  -0.070683  -0.089339
   43  C 11  Y   -0.082257  -0.010558   0.081086   0.042961
   44  C 11  Z   -0.059270  -0.026226   0.167362   0.053861
   45  C 12  S   -0.010664  -0.031155   0.034615   0.150296
   46  C 12  X    0.014255   0.008041  -0.056218  -0.182131
   47  C 12  Y    0.006166  -0.044694   0.038126   0.153965
   48  C 12  Z    0.002321  -0.015883   0.067560   0.090077
   49  C 13  S   -0.039551   0.095768  -0.047039  -0.054537
   50  C 13  X   -0.013956   0.029899   0.004490   0.053783
   51  C 13  Y   -0.066657   0.103174  -0.024291  -0.063556
   52  C 13  Z   -0.081240   0.012156   0.016279  -0.119531
   53  C 14  S   -0.014469  -0.123531   0.081773  -0.070923
   54  C 14  X   -0.068494   0.019645  -0.049491  -0.011277
   55  C 14  Y   -0.040497  -0.263634   0.146686  -0.149924
   56  C 14  Z    0.017823  -0.001680  -0.030241   0.052571
   57  C 15  S    0.075126   0.000182  -0.035983  -0.000232
   58  C 15  X    0.011275   0.042750  -0.029981  -0.014774
   59  C 15  Y    0.102101  -0.016134  -0.043297   0.039177
   60  C 15  Z    0.206255   0.121669  -0.216135  -0.010560
   61  C 16  S    0.002431   0.010959   0.043311  -0.130706
   62  C 16  X    0.004500  -0.022074  -0.047023   0.067349
   63  C 16  Y    0.054344   0.000924   0.112223  -0.151266
   64  C 16  Z   -0.017410   0.004542  -0.076374  -0.030810
   65  C 17  S    0.095977  -0.037068   0.033156  -0.062310
   66  C 17  X   -0.147308   0.105822  -0.066751   0.113663
   67  C 17  Y   -0.023622   0.002497  -0.035889   0.085198
   68  C 17  Z   -0.040239   0.010567  -0.082442   0.042904
   69  C 18  S   -0.082954   0.015508  -0.087914   0.152545
   70  C 18  X    0.116203  -0.040764   0.148389  -0.128493
   71  C 18  Y   -0.006346   0.028895   0.007808  -0.048349
   72  C 18  Z    0.094788  -0.031147   0.204445  -0.174314
   73  C 19  S   -0.060672   0.048186  -0.129864   0.133592
   74  C 19  X    0.030286   0.013841   0.055940  -0.066435
   75  C 19  Y   -0.112858   0.104484  -0.220865   0.142399
   76  C 19  Z    0.097401  -0.025475   0.142560  -0.098324
   77  C 20  S    0.091597   0.021082   0.095389  -0.038850
   78  C 20  X    0.006182   0.074992  -0.010434   0.051148
   79  C 20  Y    0.134244  -0.000165   0.136855  -0.099514
   80  C 20  Z   -0.173193  -0.033646  -0.126748   0.019554
   81  C 21  S    0.026533   0.006461   0.040530  -0.084142
   82  C 21  X   -0.053014   0.026505  -0.071255   0.089927
   83  C 21  Y   -0.081924  -0.013704  -0.080319   0.043697
   84  C 21  Z   -0.061476  -0.032746  -0.165981   0.054756
   85  C 22  S    0.025215   0.151793   0.071862  -0.040696
   86  C 22  X   -0.026500   0.128638   0.083056  -0.055842
   87  C 22  Y    0.034199   0.044077   0.048209  -0.026004
   88  C 22  Z   -0.101786  -0.020628  -0.142344  -0.027286
   89  C 23  S   -0.013401   0.013946   0.015907  -0.055253
   90  C 23  X   -0.017667   0.055618   0.003657  -0.050016
   91  C 23  Y   -0.032514  -0.153637  -0.084434   0.069447
   92  C 23  Z   -0.142964  -0.073097  -0.070521  -0.015665
   93  C 24  S   -0.075808  -0.001494  -0.035888   0.000402
   94  C 24  X   -0.009568  -0.043806  -0.027942   0.015139
   95  C 24  Y    0.103341  -0.014426   0.044216   0.039025
   96  C 24  Z    0.207403   0.130075   0.211211  -0.011927
   97  C 25  S   -0.135465  -0.116499  -0.099863  -0.029406
   98  C 25  X   -0.081936  -0.065362  -0.075407  -0.006728
   99  C 25  Y   -0.183999  -0.094985  -0.122812  -0.041537
  100  C 25  Z    0.167444   0.103967   0.185667  -0.046578
  101  C 26  S    0.098841  -0.203045  -0.016056   0.124292
  102  C 26  X    0.177795  -0.270901  -0.028497   0.099717
  103  C 26  Y    0.036126  -0.070820  -0.027527   0.027268
  104  C 26  Z   -0.023744   0.056727   0.046882  -0.018007
  105  C 27  S   -0.119520   0.090817  -0.005624  -0.140940
  106  C 27  X   -0.090017   0.184872   0.002811  -0.081231
  107  C 27  Y   -0.105128   0.027259  -0.004872  -0.098463
  108  C 27  Z   -0.005782   0.068018  -0.028864  -0.034650
  109  C 28  S    0.141908   0.083144   0.000791   0.123484
  110  C 28  X    0.118761   0.044538   0.016754   0.099817
  111  C 28  Y    0.130996   0.184373  -0.049471   0.123505
  112  C 28  Z   -0.072392  -0.082936  -0.047118  -0.032362
  113  C 29  S    0.134862   0.112499  -0.104012   0.030255
  114  C 29  X    0.081209   0.062442  -0.077930   0.007157
  115  C 29  Y   -0.184229  -0.090177   0.126052  -0.042575
  116  C 29  Z    0.166285   0.096520  -0.189735  -0.045218
  117  C 30  S   -0.023180  -0.148790   0.077995   0.040320
  118  C 30  X    0.028864  -0.125263   0.088458   0.055416
  119  C 30  Y    0.034087   0.042169  -0.050135  -0.025593
  120  C 30  Z   -0.099529  -0.015022   0.142471  -0.028195
  121  C 31  S    0.011367  -0.013395   0.017023   0.054907
  122  C 31  X    0.015064  -0.055482   0.006421   0.049701
  123  C 31  Y   -0.033428  -0.150223   0.091047   0.068718
  124  C 31  Z   -0.144369  -0.070138   0.073349  -0.016322
  125  C 32  S   -0.100188   0.202186  -0.025109  -0.124279
  126  C 32  X   -0.179860   0.269527  -0.040181  -0.099763
  127  C 32  Y    0.037753  -0.069621   0.030566   0.027257
  128  C 32  Z   -0.024636   0.054613  -0.049154  -0.017663

     ----------------------------------------------------------------
     PROPERTY VALUES FOR THE RHF   SELF-CONSISTENT FIELD WAVEFUNCTION
     ----------------------------------------------------------------

                    -------------
                    MOPAC CHARGES
                    -------------
         ATOM NO.   TYPE          CHARGE        ATOM  ELECTRON DENSITY
           1         C             -0.0409          4.0409
           2         C             -0.0091          4.0091
           3         C              0.0409          3.9591
           4         C             -0.0127          4.0127
           5         C              0.0241          3.9759
           6         C             -0.0038          4.0038
           7         C              0.0358          3.9642
           8         C             -0.0239          4.0239
           9         C             -0.0140          4.0140
          10         C              0.0157          3.9843
          11         C             -0.0212          4.0212
          12         C             -0.0094          4.0094
          13         C             -0.0407          4.0407
          14         C              0.0407          3.9593
          15         C              0.0129          3.9871
          16         C             -0.0038          4.0038
          17         C              0.0360          3.9640
          18         C             -0.0242          4.0242
          19         C             -0.0140          4.0140
          20         C              0.0158          3.9842
          21         C             -0.0212          4.0212
          22         C             -0.0008          4.0008
          23         C              0.0150          3.9850
          24         C              0.0128          3.9872
          25         C              0.0000          4.0000
          26         C             -0.0178          4.0178
          27         C              0.0241          3.9759
          28         C             -0.0125          4.0125
          29         C              0.0002          3.9998
          30         C             -0.0011          4.0011
          31         C              0.0150          3.9850
          32         C             -0.0177          4.0177

          ---------------------
          ELECTROSTATIC MOMENTS
          ---------------------

 POINT   1           X           Y           Z (ANGS)      CHARGE
                 0.000000    0.000000    0.000000       -0.00 (A.U.)
         DX          DY          DZ         /D/  (DEBYE)
     0.400658   -0.000242    0.000329    0.400658
 ...... END OF PROPERTY EVALUATION ......
 CPU     0: STEP CPU TIME=     0.05 TOTAL CPU TIME=          1.3 (      0.0 MIN)
 TOTAL WALL CLOCK TIME=          1.7 SECONDS, CPU UTILIZATION IS    80.75%
  $VIB   
          IVIB=   0 IATOM=   0 ICOORD=   0 E=     -138.1987903156
  4.855342888E-04-7.225006494E-05 3.301865629E-05-2.029057948E-04 2.971826685E-04
  1.954316128E-05-3.169319892E-04 1.425598217E-04-3.368593591E-04 2.943195465E-04
  8.055501417E-05-3.055247761E-05-4.127218445E-04-4.216121444E-04-2.520250331E-04
  1.625040635E-05 1.429781459E-04-1.131309076E-04 3.046480995E-05-1.065632729E-04
 -5.847556523E-05 1.100575913E-04 2.221736204E-05 2.492989702E-05 2.934850925E-05
 -4.303324648E-05 7.291624877E-05 1.624737327E-05 2.197983760E-04-1.841490805E-04
  9.281098025E-05-6.004296525E-05-1.372675121E-04-2.946861480E-04-1.466336678E-04
 -2.203551245E-04 3.226493262E-04 1.102152892E-04-1.064805645E-04-4.194822433E-04
 -2.426923159E-04-1.274496269E-04-1.475509614E-04-1.302063039E-04-6.572721747E-05
  7.734572896E-05-7.855207955E-05 1.818832618E-04 6.589896146E-05 9.494720580E-05
  8.736217768E-05 1.780657901E-04-1.821819321E-04 1.120388674E-04 3.292526572E-04
  1.168495880E-04 1.391076900E-04-5.766457996E-05-7.154154654E-05 2.339263984E-04
  2.463834996E-05 2.883771290E-05 1.867135599E-04-8.450405226E-05-1.111591978E-04
 -1.294496363E-06 2.036510542E-04 1.752591800E-04 2.051812752E-04-3.098640129E-04
 -9.846516840E-05 2.714978035E-04-9.948703056E-05 5.468622311E-05-4.416183286E-05
  1.361003234E-04-2.700091557E-04-3.494367387E-04-1.737543927E-04 3.133325661E-04
  2.136255552E-04 8.567006639E-05 5.613656987E-05-1.206352822E-04-2.089583689E-04
 -6.027929511E-05 8.330074303E-05-1.317223157E-05 1.989265613E-04-8.848480293E-05
  7.742504356E-05-3.304110700E-04-7.216411211E-05 1.659528429E-04 3.711511420E-04
  4.436044383E-04
  4.006578350E-01-2.421780572E-04 3.286940666E-04
 ......END OF GEOMETRY SEARCH......
 CPU     0: STEP CPU TIME=     0.02 TOTAL CPU TIME=          1.4 (      0.0 MIN)
 TOTAL WALL CLOCK TIME=          1.7 SECONDS, CPU UTILIZATION IS    80.96%
                580000  WORDS OF DYNAMIC MEMORY USED
 EXECUTION OF GAMESS TERMINATED NORMALLY 21:03:31 22-MAY-2023    
 DDI: 263640 bytes (0.3 MB / 0 MWords) used by master data server.

 ----------------------------------------
 CPU timing information for all processes
 ========================================
 0: 0.937500 + 0.515625 = 1.453125
 1: 1.046875 + 0.109375 = 1.156250
 2: 0.359375 + 0.421875 = 0.781250
 3: 0.203125 + 0.281250 = 0.484375
 ----------------------------------------
           Disk usage (in bytes)       
 ========================================
 ----------------------------------------
            Local date and time          
 ========================================
22.05.2023 - 21:03:31,29                          
