          *******************************************************
          *                                                     *
          *          GAMESS VERSION = 30 SEP 2022 (R2)          *
          *                                                     *
          *              doi.org/10.1063/5.0005188              *
          *                                                     *
          *************** 64 BIT WINDOWS VERSION ****************

  GAMESS HAS BEEN MADE POSSIBLE WITH IMPORTANT CONTRIBUTIONS FROM
  THE FOLLOWING INDIVIDUALS (IN ALPHABETICAL ORDER):

     IVANA ADAMOVIC, CHRISTINE AIKENS, TOMOKO AKAMA,
     MELISA ALKAN, YURI ALEXEEV, YURIKO AOKI, POOJA ARORA,
     TOSHIO ASADA, ANDREY ASADCHEV, KIM K. BALDRIDGE,
     PRADIPTA BANDYOPADHYAY, TAYLOR A. BARNES, MARIA BARYSZ,
     ROB BELL, JONATHAN BENTZ, COLLEEN BERTONI,
     JERRY A. BOATZ, BRETT BODE, KURT BRORSEN, KURT R. BRORSEN,
     LAIMUTIS BYTAUTAS, CALEB CARLIN, LAURA CARRINGTON,
     GALINA CHABAN, BENOIT CHAMPAGNE, WEI CHEN, MAHITO CHIBA,
     DAN CHIPMAN, CHEOL HO CHOI, TANNER CULPITT,
     DIPAYAN DATTA, PAUL DAY, ALBERT DEFUSCO,
     NUWAN DESILVA, J. EMILIANO DEUSTUA,
     TIM DUDLEY, MICHEL DUPUIS, STEVEN T. ELBERT,
     DMITRI FEDOROV, KATHERINE FERRERAS, MICHAEL FILATOV,
     ALEX FINDLATER,GRAHAM FLETCHER, MARK FREITAG,
     CHRISTIAN FRIEDL, DAVID GARMER, 
     IGOR S. GERASIMOV, KURT GLAESEMANN,
     MARK S. GORDON, JEFFREY GOUR, FENG LONG GU,
     EMILIE B. GUIDEZ, ANASTASIA GUNINA, SHARON HAMMES-SCHIFFER,
     MASATAKE HARUTA, KIMIHIKO HIRAO, YASUHIRO IKABATA,
     TZVETELIN IORDANOV, STEPHAN IRLE, KAZUYA ISHIMURA,
     JOE IVANIC, FRANK JENSEN, JAN H. JENSEN, VISVALDAS KAIRYS,
     MUNEAKI KAMIYA, MICHIO KATOUDA, NAOAKI KAWAKAMI, DAN KEMP,
     BERNARD KIRTMAN, KAZUO KITAURA, MARIUSZ KLOBUKOWSKI,
     MASATO KOBAYASHI, KONSTANTIN KOMAROV, PRAKASHAN KORAMBATH,
     JACEK KORCHOWIEC, SHIRO KOSEKI, KAROL KOWALSKI,
     JIMMY KROMANN, STANISLAW KUCHARSKI, HENRY KURTZ,
     SAROM SOK LEANG, SEUNGHOON LEE, HUI LI, SHUHUA LI, WEI LI,
     JESSE LUTZ, ALEKSANDR O. LYKHIN, MARCIN MAKOWSKI,
     JOANI MATO, NIKITA MATSUNAGA, BENEDETTA MENNUCCI,
     GRANT MERRILL, NORIYUKI MINEZAWA, VLADIMIR MIRONOV,
     EISAKU MIYOSHI, JOHN A. MONTGOMERY JR., HIROTOSHI MORI,
     JONATHAN MULLIN, MONIKA MUSIAL, SHIGERU NAGASE,
     TAKESHI NAGATA, HIROMI NAKAI, TAKAHITO NAKAJIMA,
     YUYA NAKAJIMA, HARUYUKI NAKANO, HIROYA NAKATA, SEAN NEDD,
     HEATHER NETZLOFF, KIET A. NGUYEN, YOSHIO NISHIMOTO,
     BOSILJKA NJEGIC, RYAN OLSON, MIKE PAK, ROBERTO PEVERATI,
     BUU PHAM, PIOTR PIECUCH, ANNA POMOGAEVA, DAVID POOLE,
     SPENCER PRUITT, OLIVIER QUINET, LUKE ROSKOP,
     KLAUS RUEDENBERG, ANDREW SAND, TOSAPORN SATTASATHUCHANA,
     NOZOMI SAWADA, MICHAEL W. SCHMIDT, PATRICK E. SCHNEIDER,
     JUNJI SEINO, PRACHI SHARMA, JUN SHEN, JIM SHOEMAKER,
     YINAN SHU, DEJUN SI, JONATHAN SKONE, LYUDMILA SLIPCHENKO,
     TONY SMITH, JIE SONG, MARK SPACKMAN, CASPER STEINMANN,
     WALT STEVENS, PEIFENG SU, SHUJUN SU, CHET SWALINA,
     CHINAMI TAKASHIMA, TETSUYA TAKETSUGU, ZHEN TAO,
     NANDUN THELLAMUREGE, SEIKEN TOKURA, JACOPO TOMASI,
     TSUGUKI TOUMA, TAKAO TSUNEDA, HIROAKI UMEDA,
     JORGE LUIS GALVEZ VALLEJO, YALI WANG, SIMON WEBB,
     AARON WEST, THERESA L. WINDUS, MARTA WLOCH,
     PENG XU, KIYOSHI YAGI, SUSUMU YANAGISAWA, YANG YANG,
     SOOHAENG YOO, TAKESHI YOSHIKAWA, FEDERICO ZAHARIEV,
     TOBY ZENG

  WHO ARE SUPPORTED BY THEIR INSTITUTION/UNIVERSITY/COMPANY/GROUP
  (IN ALPHABETICAL ORDER):

     EP ANALYTICS,
     FACULTES UNIVERSITAIRES NOTRE-DAME DE LA PAIX,
     INSTITUTE FOR MOLECULAR SCIENCE, IOWA STATE UNIVERSITY,
     JACKSON STATE UNIVERSITY, JOHANNES KEPLER UNIVERSITY LINZ,
     KYUNGPOOK NATIONAL UNIVERSITY
     KYUSHU UNIVERSITY, MICHIGAN STATE UNIVERSITY,
     MIE UNIVERSITY, THE MOLECULAR SCIENCES SOFTWARE INSTITUTE,
     MOSCOW STATE UNIVERSITY,
     N. COPERNICUS UNIVERSITY, NAGOYA UNIVERSITY,
     NANJING UNIVERSITY, NAT. INST. OF ADVANCED INDUSTRIAL
     SCIENCE AND TECHNOLOGY, NATIONAL INST. OF STANDARDS AND
     TECHNOLOGY, NESMEYANOV INSTITUTE OF ORGANOELEMENT COMPOUNDS
     OF RUSSIAN ACADEMY OF SCIENCES, OSAKA PREFECTURE UNIVERSITY,
     PENNSYLVANIA STATE UNIVERSITY, TOKYO INSTITUTE OF TECHNOLOGY,
     UNIVERSITY OF AARHUS, UNIVERSITY OF ALBERTA,
     UNIVERSITY OF CALIFORNIA AT SANTA BARBARA,
     UNIVERSITY OF COPENHAGEN, UNIVERSITY OF IOWA,
     UNIVERSITY OF MEMPHIS, UNIVERSITY OF MINNESOTA,
     UNIVERSITY OF NEBRASKA, UNIVERSITY OF NEW ENGLAND,
     UNIVERSITY OF NOTRE DAME, UNIVERSITY OF PISA,
     UNIVERSITY OF SILESIA, UNIVERSITY OF TOKYO,
     UNIVERSITY OF ZURICH, WASEDA UNIVERSITY,
     YALE UNIVERSITY

  GAMESS SOFTWARE MANAGEMENT TEAM FOR THIS RELEASE:
     MARK S. GORDON (TEAM LEAD),
     BRETT BODE (SENIOR ADVISOR),
     GIUSEPPE BARCA,
     COLLEEN BERTONI,
     KRISTOPHER KEIPERT (ADVISOR),
     SAROM S. LEANG (DEVELOPMENT LEAD),
     BUU PHAM,
     JACKSON HAYES (WEBSITE ADMINISTRATOR),
     PENG XU


 PARALLEL VERSION RUNNING ON        2 PROCESSORS IN        2 NODES.

 EXECUTION OF GAMESS BEGUN 21:09:58 27-MAY-2023    

            ECHO OF THE FIRST FEW INPUT CARDS -
 INPUT CARD>! (Energy/Geometry) PM3                                                         
 INPUT CARD> $CONTRL                                                                        
 INPUT CARD>COORD=UNIQUE                                                                    
 INPUT CARD>ICHARG=0                                                                        
 INPUT CARD>MAXIT=200                                                                       
 INPUT CARD>MULT=1                                                                          
 INPUT CARD>RUNTYP=OPTIMIZE                                                                 
 INPUT CARD>SCFTYP=RHF                                                                      
 INPUT CARD>UNITS=ANGS                                                                      
 INPUT CARD>! DFTTYP=PBE                                                                    
 INPUT CARD> $END                                                                           
 INPUT CARD> $DFT                                                                           
 INPUT CARD>METHOD=GRID                                                                     
 INPUT CARD> $END                                                                           
 INPUT CARD> $BASIS                                                                         
 INPUT CARD>! EXTFIL=.T.                                                                    
 INPUT CARD>! GBASIS=GEGSSBAS                                                               
 INPUT CARD>! NGAUSS=6                                                                      
 INPUT CARD>GBASIS=PM3                                                                      
 INPUT CARD>! NDFUNC=1                                                                      
 INPUT CARD>! NPFUNC=1                                                                      
 INPUT CARD> $END                                                                           
 INPUT CARD> $SCF                                                                           
 INPUT CARD>DAMP=.F.                                                                        
 INPUT CARD>DEM=.F.                                                                         
 INPUT CARD>DIIS=.F.                                                                        
 INPUT CARD>DIRSCF=.T.                                                                      
 INPUT CARD>EXTRAP=.T.                                                                      
 INPUT CARD>RSTRCT=.F.                                                                      
 INPUT CARD>SHIFT=.F.                                                                       
 INPUT CARD>SOSCF=.T.                                                                       
 INPUT CARD> $END                                                                           
 INPUT CARD> $STATPT                                                                        
 INPUT CARD>METHOD=QA                                                                       
 INPUT CARD>NSTEP=100                                                                       
 INPUT CARD>OPTTOL=0.001                                                                    
 INPUT CARD> $END                                                                           
 INPUT CARD> $GUESS                                                                         
 INPUT CARD>GUESS=HUCKEL                                                                    
 INPUT CARD> $END                                                                           
 INPUT CARD> $SYSTEM                                                                        
 INPUT CARD>MWORDS=10                                                                       
 INPUT CARD> $END                                                                           
 INPUT CARD> $DATA                                                                          
 INPUT CARD>C36 FULLERENE                                                                   
 INPUT CARD>C1                                                                              
 INPUT CARD>C	6.0	-3.3212	-0.6202	0.0823                                                    
 INPUT CARD>C	6.0	-2.4962	-1.6621	-0.278                                                    
 INPUT CARD>C	6.0	-0.4358	-1.51	-1.5485                                                     
 INPUT CARD>C	6.0	-1.7844	-1.1961	-1.4022                                                   
     10000000 WORDS OF MEMORY AVAILABLE

     BASIS OPTIONS
     -------------
     GBASIS=PM3          IGAUSS=       0      POLAR=NONE    
     NDFUNC=       0     NFFUNC=       0     DIFFSP=       F
     NPFUNC=       0      DIFFS=       F     BASNAM=        


     RUN TITLE
     ---------
 C36 FULLERENE                                                                   

 THE POINT GROUP OF THE MOLECULE IS C1      
 THE ORDER OF THE PRINCIPAL AXIS IS     0

 ATOM      ATOMIC                      COORDINATES (BOHR)
           CHARGE         X                   Y                   Z
 C           6.0    -6.2761579504       -1.1720080576        0.1555244488
 C           6.0    -4.7171340106       -3.1409135642       -0.5253438246
 C           6.0    -0.8235425854       -2.8534862415       -2.9262406920
 C           6.0    -3.3720270525       -2.2603012539       -2.6497737800
 C           6.0     3.0587104837       -3.7148233467       -1.3581460674
 C           6.0     0.5427293037       -4.3337086076       -1.1500872361
 C           6.0    -6.1196886386        0.7608036827       -1.5599688029
 C           6.0    -4.2205140210        0.1691304759       -3.2070539738
 C           6.0    -5.2422888625        2.8451714471       -0.3446860202
 C           6.0    -3.0951821953        3.7280514286       -1.4522544216
 C           6.0     1.2627149050        4.2981817591       -0.2898839665
 C           6.0    -1.2574236722        4.2715366226        0.3034899936
 C           6.0     0.9231311450       -1.0472861424       -3.8370886181
 C           6.0     0.2190192420        1.5633703096       -3.7732158797
 C           6.0    -2.3625354298        2.0452504365       -3.3795859564
 C           6.0     2.1115798187        3.0581435659       -2.5373350837
 C           6.0    -4.5863649722        2.2438606378        2.0692499566
 C           6.0    -5.2428557803       -0.2386723922        2.3940938538
 C           6.0    -3.3374450669       -1.8237745508        3.0840328120
 C           6.0    -2.1064775585        3.0537971962        2.5492403574
 C           6.0     2.3332446770        2.0084007798        3.2535412331
 C           6.0    -0.2369716389        1.5042218862        3.7318308806
 C           6.0    -0.9429732679       -1.1018992234        3.8486159466
 C           6.0     3.1520629475        3.7694364277        1.4409160656
 C           6.0    -0.5841143028       -4.3824635381        1.2462742889
 C           6.0    -3.1067095238       -3.8008058791        1.4163496278
 C           6.0     3.3434921901       -2.3326777592        2.6699938481
 C           6.0     0.8120152569       -2.9269965824        3.0150578134
 C           6.0     4.7318738733       -3.1172919893        0.5480205364
 C           6.0     4.1946247749        0.1283123946        3.0694819219
 C           6.0     6.3169760318       -1.1659609344       -0.1494773256
 C           6.0     6.1712781581        0.8019997092        1.5040329136
 C           6.0     5.3139094775        2.9215163770        0.3401506778
 C           6.0     3.3062645881       -1.7818226338       -3.0698598671
 C           6.0     5.2398322188       -0.2286568445       -2.3725509776
 C           6.0     4.5914672324        2.2568997471       -2.0548880390

          INTERNUCLEAR DISTANCES (ANGS.)
          ------------------------------

                1 C          2 C          3 C          4 C          5 C     

   1 C       0.0000000    1.3769520 *  3.4317322    2.2129517 *  5.1820714  
   2 C       1.3769520 *  0.0000000    2.4253975 *  1.4098372 *  4.1494613  
   3 C       3.4317322    2.4253975 *  0.0000000    1.3923573 *  2.2620524 *
   4 C       2.2129517 *  1.4098372 *  1.3923573 *  0.0000000    3.5552805  
   5 C       5.1820714    4.1494613    2.2620524 *  3.5552805    0.0000000  
   6 C       4.0369737    2.8731560 *  1.4211615 *  2.4749092 *  1.3755014 *
   7 C       1.3700644 *  2.2613277 *  3.4691980    2.2366360 *  5.4047362  
   8 C       2.2030087 *  2.2695839 *  2.4107775 *  1.3933178 *  4.4743076  
   9 C       2.2109749 *  3.1813034    4.0531123    3.1251562    5.6244154  
  10 C       3.2064012    3.7669307    3.7660776    3.2349598    5.1107575  
  11 C       4.9345876    5.0523036    4.1818130    4.4294258    4.3821192  
  12 C       3.9188341    4.3508855    4.1460409    3.9549838    4.8837067  
  13 C       4.3568445    3.6341619    1.4142871 *  2.4439458 *  2.2339561 *
  14 C       4.2697955    3.9967622    2.4429956 *  2.8387881 *  3.4194735  
  15 C       3.2691078    3.3712840    2.7277864 *  2.3718403 *  4.3203223  
  16 C       5.1713322    4.9952693    3.4987204    4.0428741    3.6723766  
  17 C       2.2566729 *  3.1637901    4.2695359    3.5114121    5.4405016  
  18 C       1.3950644 *  2.1960858 *  3.9128190    3.0411621    5.1599241  
  19 C       2.2223551 *  2.1603136 *  3.4903000    3.0430356    4.2406821  
  20 C       3.3872941    3.9117273    4.3160500    3.9906774    4.9573787  
  21 C       5.1260459    5.0342323    4.4837571    4.8965646    3.9083691  
  22 C       3.9749612    4.0912169    4.2222775    4.2573316    4.2336766  
  23 C       3.4329984    3.2419781    3.7035226    3.7220112    3.7400223  
  24 C       5.6738427    5.6387399    4.6957020    5.1755383    4.2287060  
  25 C       3.5060187    2.4685951 *  2.3549861 *  2.7727686 *  2.3958889 *
  26 C       2.2788846 *  1.3798340 *  2.6442112 *  2.3052280 *  3.5780218  
  27 C       5.2972567    4.6083143    3.7024737    4.5337665    2.2586224 *
  28 C       4.1498806    3.4761627    3.2611868    3.7433824    2.6349213 *
  29 C       5.9191012    5.0323732    3.4701577    4.6324483    1.3789095 *
  30 C       5.7924795    5.3713460    4.4281044    5.1759265    3.1602066  
  31 C       6.6659550    5.9351256    4.1514339    5.3267373    2.2806173 *
  32 C       6.7072845    6.2214335    4.7894903    5.7411823    3.2741423  
  33 C       6.5052371    6.2192167    4.7827872    5.5811614    3.8163601  
  34 C       5.3600666    4.5118875    2.2590599 *  3.5500258    1.3725739 *
  35 C       6.2590531    5.5760969    3.5086014    4.6845953    2.2413431 *
  36 C       6.1427566    5.7514033    3.9669815    4.8550747    3.2832994  

                6 C          7 C          8 C          9 C         10 C     

   1 C       4.0369737    1.3700644 *  2.2030087 *  2.2109749 *  3.2064012  
   2 C       2.8731560 *  2.2613277 *  2.2695839 *  3.1813034    3.7669307  
   3 C       1.4211615 *  3.4691980    2.4107775 *  4.0531123    3.7660776  
   4 C       2.4749092 *  2.2366360 *  1.3933178 *  3.1251562    3.2349598  
   5 C       1.3755014 *  5.4047362    4.4743076    5.6244154    5.1107575  
   6 C       0.0000000    4.4435096    3.6353806    4.8974325    4.6830745  
   7 C       4.4435096    0.0000000    1.3666540 *  1.3585879 *  2.2428503 *
   8 C       3.6353806    1.3666540 *  0.0000000    2.1428980 *  2.1825987 *
   9 C       4.8974325    1.3585879 *  2.1428980 *  0.0000000    1.3611537 *
  10 C       4.6830745    2.2428503 *  2.1825987 *  1.3611537 *  0.0000000  
  11 C       4.6062094    4.3837486    3.9467097    3.5272479    2.4057157 *
  12 C       4.7154320    3.3232729    3.2592146    2.2658305 *  1.3753897 *
  13 C       2.2553913 *  4.0320311    2.8167792 *  4.2781782    3.5355268  
  14 C       3.4196944    3.5781850    2.4805885 *  3.4790624    2.4282627 *
  15 C       3.8923261    2.3113000 *  1.4002392 *  2.2540386 *  1.4083670 *
  16 C       4.0655565    4.5517487    3.7000932    4.0623601    2.8367330 *
  17 C       4.7312162    2.2276897 *  3.0064410    1.3614259 *  2.1707520 *
  18 C       4.1936600    2.2075255 *  3.0206865    2.1825600 *  3.1369900  
  19 C       3.3166918    3.1745199    3.5232737    3.2268359    3.7960627  
  20 C       4.5913122    3.2727498    3.5861424    2.2607482 *  2.2101698 *
  21 C       4.1942176    5.1896739    4.9662082    4.4600612    3.9090954  
  22 C       4.0482056    4.2056168    4.2925116    3.4889333    3.3463726  
  23 C       3.2465332    4.0825890    4.1714566    3.8029868    3.9621085  
  24 C       4.7088712    5.3971555    4.9900242    4.5677464    3.6432699  
  25 C       1.4015409 *  4.2654044    3.8804443    4.6274562    4.7143715  
  26 C       2.3777075 *  3.2938806    3.2782014    3.8097440    4.2634979  
  27 C       2.7210939 *  5.7242696    5.2389330    5.5403128    5.1627173  
  28 C       2.3307712 *  4.8087993    4.5406686    4.7702446    4.7186689  
  29 C       2.4771019 *  6.1992760    5.4236514    6.1673972    5.6033507  
  30 C       3.7809607    5.9920280    5.5553815    5.5017438    4.9229273  
  31 C       3.5252012    6.7014096    5.8490232    6.4755361    5.6559446  
  32 C       4.2696576    6.7031880    6.0470909    6.2133122    5.3749589  
  33 C       4.6622666    6.2390491    5.5768233    5.5979888    4.5698381  
  34 C       2.2347811 *  5.2277065    4.1152654    5.3421593    4.5507361  
  35 C       3.3638630    6.0492630    5.0300457    5.8792407    4.9066732  
  36 C       4.1210326    5.7291132    4.8308197    5.2910743    4.1536886  

               11 C         12 C         13 C         14 C         15 C     

   1 C       4.9345876    3.9188341    4.3568445    4.2697955    3.2691078  
   2 C       5.0523036    4.3508855    3.6341619    3.9967622    3.3712840  
   3 C       4.1818130    4.1460409    1.4142871 *  2.4429956 *  2.7277864 *
   4 C       4.4294258    3.9549838    2.4439458 *  2.8387881 *  2.3718403 *
   5 C       4.3821192    4.8837067    2.2339561 *  3.4194735    4.3203223  
   6 C       4.6062094    4.7154320    2.2553913 *  3.4196944    3.8923261  
   7 C       4.3837486    3.3232729    4.0320311    3.5781850    2.3113000 *
   8 C       3.9467097    3.2592146    2.8167792 *  2.4805885 *  1.4002392 *
   9 C       3.5272479    2.2658305 *  4.2781782    3.4790624    2.2540386 *
  10 C       2.4057157 *  1.3753897 *  3.5355268    2.4282627 *  1.4083670 *
  11 C       0.0000000    1.3701401 *  3.3996088    2.4077330 *  2.7883372 *
  12 C       1.3701401 *  0.0000000    3.7489169    2.7052077 *  2.3512787 *
  13 C       3.3996088    3.7489169    0.0000000    1.4312636 *  2.3999630 *
  14 C       2.4077330 *  2.7052077 *  1.4312636 *  0.0000000    1.4052199 *
  15 C       2.7883372 *  2.3512787 *  2.3999630 *  1.4052199 *  0.0000000  
  16 C       1.4306689 *  2.4187970 *  2.3639671 *  1.4340151 *  2.4680912 *
  17 C       3.5100644    2.2644352 *  4.6154156    4.0192812    3.1160712  
  18 C       4.4308676    3.3716639    4.6585901    4.4625410    3.6219826  
  19 C       4.4281461    3.7121973    4.3204127    4.4634163    4.0195940  
  20 C       2.4227176 *  1.4245759 *  4.3244697    3.6510454    3.1853532  
  21 C       2.3032888 *  2.7352621 *  4.1533731    3.8902021    4.3006872  
  22 C       2.7101658 *  2.3931964 *  4.2711054    3.9789468    3.9381235  
  23 C       3.7847501    3.4106535    4.1853666    4.3168089    4.2389248  
  24 C       1.3844713 *  2.4243836 *  3.9609292    3.3741698    3.9818910  
  25 C       4.7662441    4.6203540    3.3146852    4.1395478    4.2950443  
  26 C       4.9527345    4.4217510    3.7946142    4.3239464    4.0207432  
  27 C       3.9972611    4.4395548    3.7363250    4.3138974    4.9732083  
  28 C       4.2111662    4.2153231    3.7604204    4.3184138    4.6039175  
  29 C       4.3549197    5.0348725    3.2629529    4.1312289    5.0869482  
  30 C       3.2305500    3.9081039    4.0916531    4.2560902    4.9714922  
  31 C       3.9395149    4.9398941    3.4581692    4.0219493    5.1870007  
  32 C       3.3273183    4.3849800    4.0815481    4.2287331    5.2445011  
  33 C       2.2886123 *  3.5500781    3.8335105    3.5388568    4.5377401  
  34 C       3.6993545    4.3908926    1.3806871 *  2.4374406 *  3.6231338  
  35 C       3.3737792    4.4156114    2.4507782 *  2.9168078 *  4.2327819  
  36 C       2.2676133 *  3.5033865    2.7775794 *  2.5130034 *  3.7477472  

               16 C         17 C         18 C         19 C         20 C     

   1 C       5.1713322    2.2566729 *  1.3950644 *  2.2223551 *  3.3872941  
   2 C       4.9952693    3.1637901    2.1960858 *  2.1603136 *  3.9117273  
   3 C       3.4987204    4.2695359    3.9128190    3.4903000    4.3160500  
   4 C       4.0428741    3.5114121    3.0411621    3.0430356    3.9906774  
   5 C       3.6723766    5.4405016    5.1599241    4.2406821    4.9573787  
   6 C       4.0655565    4.7312162    4.1936600    3.3166918    4.5913122  
   7 C       4.5517487    2.2276897 *  2.2075255 *  3.1745199    3.2727498  
   8 C       3.7000932    3.0064410    3.0206865    3.5232737    3.5861424  
   9 C       4.0623601    1.3614259 *  2.1825600 *  3.2268359    2.2607482 *
  10 C       2.8367330 *  2.1707520 *  3.1369900    3.7960627    2.2101698 *
  11 C       1.4306689 *  3.5100644    4.4308676    4.4281461    2.4227176 *
  12 C       2.4187970 *  2.2644352 *  3.3716639    3.7121973    1.4245759 *
  13 C       2.3639671 *  4.6154156    4.6585901    4.3204127    4.3244697  
  14 C       1.4340151 *  4.0192812    4.4625410    4.4634163    3.6510454  
  15 C       2.4680912 *  3.1160712    3.6219826    4.0195940    3.1853532  
  16 C       0.0000000    4.3232890    4.9999749    4.8823527    3.4967878  
  17 C       4.3232890    0.0000000    1.3696876 *  2.3148248 *  1.4036899 *
  18 C       4.9999749    1.3696876 *  0.0000000    1.3614523 *  2.4076864 *
  19 C       4.8823527    2.3148248 *  1.3614523 *  0.0000000    2.6770297 *
  20 C       3.4967878    1.4036899 *  2.4076864 *  2.6770297 *  0.0000000  
  21 C       3.1165505    3.7170317    4.2063862    3.6228753    2.4422563 *
  22 C       3.6368304    2.4949157 *  2.8929156 *  2.4312305 *  1.4292446 *
  23 C       4.3449487    2.7818096 *  2.4451073 *  1.3838958 *  2.3849363 *
  24 C       2.2083261 *  4.1870413    4.9485329    4.6162202    2.8689397 *
  25 C       4.6418559    4.1195513    3.3548488    2.2140283 *  4.0754648  
  26 C       5.0176316    3.3112144    2.2580372 *  1.3741358 *  3.7144130  
  27 C       4.0194779    4.8554206    4.6791464    3.5524049    4.0554062  
  28 C       4.3745979    3.9873014    3.5210830    2.2723759 *  3.5302303  
  29 C       3.9073699    5.7455509    5.5799895    4.5280524    4.9880471  
  30 C       3.5244708    4.8088730    5.0106370    4.1174932    3.6865468  
  31 C       3.3978900    6.1583246    6.2827254    5.3990644    5.1860452  
  32 C       3.2579441    5.7513879    6.0834135    5.2866610    4.5731537  
  33 C       2.2793665 *  5.3303790    5.9317623    5.4196796    4.0976132  
  34 C       2.6530800 *  5.4201334    5.4308016    4.7922262    4.8573538  
  35 C       2.4027313 *  5.8544582    6.0937638    5.4453443    4.9913170  
  36 C       1.4025282 *  5.3245143    5.8625395    5.4463641    4.3216487  

               21 C         22 C         23 C         24 C         25 C     

   1 C       5.1260459    3.9749612    3.4329984    5.6738427    3.5060187  
   2 C       5.0342323    4.0912169    3.2419781    5.6387399    2.4685951 *
   3 C       4.4837571    4.2222775    3.7035226    4.6957020    2.3549861 *
   4 C       4.8965646    4.2573316    3.7220112    5.1755383    2.7727686 *
   5 C       3.9083691    4.2336766    3.7400223    4.2287060    2.3958889 *
   6 C       4.1942176    4.0482056    3.2465332    4.7088712    1.4015409 *
   7 C       5.1896739    4.2056168    4.0825890    5.3971555    4.2654044  
   8 C       4.9662082    4.2925116    4.1714566    4.9900242    3.8804443  
   9 C       4.4600612    3.4889333    3.8029868    4.5677464    4.6274562  
  10 C       3.9090954    3.3463726    3.9621085    3.6432699    4.7143715  
  11 C       2.3032888 *  2.7101658 *  3.7847501    1.3844713 *  4.7662441  
  12 C       2.7352621 *  2.3931964 *  3.4106535    2.4243836 *  4.6203540  
  13 C       4.1533731    4.2711054    4.1853666    3.9609292    3.3146852  
  14 C       3.8902021    3.9789468    4.3168089    3.3741698    4.1395478  
  15 C       4.3006872    3.9381235    4.2389248    3.9818910    4.2950443  
  16 C       3.1165505    3.6368304    4.3449487    2.2083261 *  4.6418559  
  17 C       3.7170317    2.4949157 *  2.7818096 *  4.1870413    4.1195513  
  18 C       4.2063862    2.8929156 *  2.4451073 *  4.9485329    3.3548488  
  19 C       3.6228753    2.4312305 *  1.3838958 *  4.6162202    2.2140283 *
  20 C       2.4422563 *  1.4292446 *  2.3849363 *  2.8689397 *  4.0754648  
  21 C       0.0000000    1.4089407 *  2.4111957 *  1.4057920 *  3.8663723  
  22 C       1.4089407 *  0.0000000    1.4301444 *  2.4744366 *  3.3863857  
  23 C       2.4111957 *  1.4301444 *  0.0000000    3.6005934    2.2239969 *
  24 C       1.4057920 *  2.4744366 *  3.6005934    0.0000000    4.7464096  
  25 C       3.8663723    3.3863857    2.2239969 *  4.7464096    0.0000000  
  26 C       4.3222884    3.4188360    2.2377235 *  5.1978408    1.3728798 *
  27 C       2.3787145 *  2.8333979 *  2.4409790 *  3.2955073    2.4625053 *
  28 C       2.7358597 *  2.4393771 *  1.4106107 *  3.8450458    1.4195526 *
  29 C       3.3193375    3.9665167    3.6340119    3.7686967    2.9151830 *
  30 C       1.4034022 *  2.4804181 *  2.8257958 *  2.1816577 *  3.6088000  
  31 C       3.2417116    4.2712393    4.3859734    3.2146886    4.0962236  
  32 C       2.3215558 *  3.6093560    4.0899094    2.2404470 *  4.5082804  
  33 C       2.2579186 *  3.5230847    4.3523271    1.3599169 *  4.9910103  
  34 C       3.9350996    4.4152416    4.3115324    3.7860166    3.3688022  
  35 C       3.5539913    4.4356837    4.6643471    3.1255549    4.2422843  
  36 C       3.0555458    4.0080229    4.6363575    2.1547522 *  4.7850459  

               26 C         27 C         28 C         29 C         30 C     

   1 C       2.2788846 *  5.2972567    4.1498806    5.9191012    5.7924795  
   2 C       1.3798340 *  4.6083143    3.4761627    5.0323732    5.3713460  
   3 C       2.6442112 *  3.7024737    3.2611868    3.4701577    4.4281044  
   4 C       2.3052280 *  4.5337665    3.7433824    4.6324483    5.1759265  
   5 C       3.5780218    2.2586224 *  2.6349213 *  1.3789095 *  3.1602066  
   6 C       2.3777075 *  2.7210939 *  2.3307712 *  2.4771019 *  3.7809607  
   7 C       3.2938806    5.7242696    4.8087993    6.1992760    5.9920280  
   8 C       3.2782014    5.2389330    4.5406686    5.4236514    5.5553815  
   9 C       3.8097440    5.5403128    4.7702446    6.1673972    5.5017438  
  10 C       4.2634979    5.1627173    4.7186689    5.6033507    4.9229273  
  11 C       4.9527345    3.9972611    4.2111662    4.3549197    3.2305500  
  12 C       4.4217510    4.4395548    4.2153231    5.0348725    3.9081039  
  13 C       3.7946142    3.7363250    3.7604204    3.2629529    4.0916531  
  14 C       4.3239464    4.3138974    4.3184138    4.1312289    4.2560902  
  15 C       4.0207432    4.9732083    4.6039175    5.0869482    4.9714922  
  16 C       5.0176316    4.0194779    4.3745979    3.9073699    3.5244708  
  17 C       3.3112144    4.8554206    3.9873014    5.7455509    4.8088730  
  18 C       2.2580372 *  4.6791464    3.5210830    5.5799895    5.0106370  
  19 C       1.3741358 *  3.5524049    2.2723759 *  4.5280524    4.1174932  
  20 C       3.7144130    4.0554062    3.5302303    4.9880471    3.6865468  
  21 C       4.3222884    2.3787145 *  2.7358597 *  3.3193375    1.4034022 *
  22 C       3.4188360    2.8333979 *  2.4393771 *  3.9665167    2.4804181 *
  23 C       2.2377235 *  2.4409790 *  1.4106107 *  3.6340119    2.8257958 *
  24 C       5.1978408    3.2955073    3.8450458    3.7686967    2.1816577 *
  25 C       1.3728798 *  2.4625053 *  1.4195526 *  2.9151830 *  3.6088000  
  26 C       0.0000000    3.5629047    2.2868672 *  4.1890179    4.4739832  
  27 C       3.5629047    0.0000000    1.3880854 *  1.4046635 *  1.3941074 *
  28 C       2.2868672 *  1.3880854 *  0.0000000    2.4529964 *  2.4122545 *
  29 C       4.1890179    1.4046635 *  2.4529964 *  0.0000000    2.1933967 *
  30 C       4.4739832    1.3941074 *  2.4122545 *  2.1933967 *  0.0000000  
  31 C       5.2439322    2.2545840 *  3.4869578    1.3806097 *  2.1522112 *
  32 C       5.4808705    2.3176539 *  3.5462895    2.2666269 *  1.3811064 *
  33 C       5.7301527    3.2152589    4.1542026    3.2122925    2.1497910 *
  34 C       4.2771340    3.0514192    3.5323890    2.1757423 *  3.4347361  
  35 C       5.2058987    3.0605605    3.9569201    2.1903063 *  2.9385117 *
  36 C       5.4995550    3.5477052    4.3270196    3.1607781    2.9438400 *

               31 C         32 C         33 C         34 C         35 C     

   1 C       6.6659550    6.7072845    6.5052371    5.3600666    6.2590531  
   2 C       5.9351256    6.2214335    6.2192167    4.5118875    5.5760969  
   3 C       4.1514339    4.7894903    4.7827872    2.2590599 *  3.5086014  
   4 C       5.3267373    5.7411823    5.5811614    3.5500258    4.6845953  
   5 C       2.2806173 *  3.2741423    3.8163601    1.3725739 *  2.2413431 *
   6 C       3.5252012    4.2696576    4.6622666    2.2347811 *  3.3638630  
   7 C       6.7014096    6.7031880    6.2390491    5.2277065    6.0492630  
   8 C       5.8490232    6.0470909    5.5768233    4.1152654    5.0300457  
   9 C       6.4755361    6.2133122    5.5979888    5.3421593    5.8792407  
  10 C       5.6559446    5.3749589    4.5698381    4.5507361    4.9066732  
  11 C       3.9395149    3.3273183    2.2886123 *  3.6993545    3.3737792  
  12 C       4.9398941    4.3849800    3.5500781    4.3908926    4.4156114  
  13 C       3.4581692    4.0815481    3.8335105    1.3806871 *  2.4507782 *
  14 C       4.0219493    4.2287331    3.5388568    2.4374406 *  2.9168078 *
  15 C       5.1870007    5.2445011    4.5377401    3.6231338    4.2327819  
  16 C       3.3978900    3.2579441    2.2793665 *  2.6530800 *  2.4027313 *
  17 C       6.1583246    5.7513879    5.3303790    5.4201334    5.8544582  
  18 C       6.2827254    6.0834135    5.9317623    5.4308016    6.0937638  
  19 C       5.3990644    5.2866610    5.4196796    4.7922262    5.4453443  
  20 C       5.1860452    4.5731537    4.0976132    4.8573538    4.9913170  
  21 C       3.2417116    2.3215558 *  2.2579186 *  3.9350996    3.5539913  
  22 C       4.2712393    3.6093560    3.5230847    4.4152416    4.4356837  
  23 C       4.3859734    4.0899094    4.3523271    4.3115324    4.6643471  
  24 C       3.2146886    2.2404470 *  1.3599169 *  3.7860166    3.1255549  
  25 C       4.0962236    4.5082804    4.9910103    3.3688022    4.2422843  
  26 C       5.2439322    5.4808705    5.7301527    4.2771340    5.2058987  
  27 C       2.2545840 *  2.3176539 *  3.2152589    3.0514192    3.0605605  
  28 C       3.4869578    3.5462895    4.1542026    3.5323890    3.9569201  
  29 C       1.3806097 *  2.2666269 *  3.2122925    2.1757423 *  2.1903063 *
  30 C       2.1522112 *  1.3811064 *  2.1497910 *  3.4347361    2.9385117 *
  31 C       0.0000000    1.3623815 *  2.2421977 *  2.2433810 *  1.3981534 *
  32 C       1.3623815 *  0.0000000    1.3576314 *  3.1664499    2.1791405 *
  33 C       2.2421977 *  1.3576314 *  0.0000000    3.2526201    2.2002468 *
  34 C       2.2433810 *  3.1664499    3.2526201    0.0000000    1.3633117 *
  35 C       1.3981534 *  2.1791405 *  2.2002468 *  1.3633117 *  0.0000000  
  36 C       2.2652214 *  2.1996502 *  1.3697259 *  2.3062169 *  1.3696676 *

               36 C     

   1 C       6.1427566  
   2 C       5.7514033  
   3 C       3.9669815  
   4 C       4.8550747  
   5 C       3.2832994  
   6 C       4.1210326  
   7 C       5.7291132  
   8 C       4.8308197  
   9 C       5.2910743  
  10 C       4.1536886  
  11 C       2.2676133 *
  12 C       3.5033865  
  13 C       2.7775794 *
  14 C       2.5130034 *
  15 C       3.7477472  
  16 C       1.4025282 *
  17 C       5.3245143  
  18 C       5.8625395  
  19 C       5.4463641  
  20 C       4.3216487  
  21 C       3.0555458  
  22 C       4.0080229  
  23 C       4.6363575  
  24 C       2.1547522 *
  25 C       4.7850459  
  26 C       5.4995550  
  27 C       3.5477052  
  28 C       4.3270196  
  29 C       3.1607781  
  30 C       2.9438400 *
  31 C       2.2652214 *
  32 C       2.1996502 *
  33 C       1.3697259 *
  34 C       2.3062169 *
  35 C       1.3696676 *
  36 C       0.0000000  

  * ... LESS THAN  3.000


 TOTAL NUMBER OF BASIS SET SHELLS             =   36
 NUMBER OF CARTESIAN GAUSSIAN BASIS FUNCTIONS =  144
 NUMBER OF ELECTRONS                          =  144
 CHARGE OF MOLECULE                           =    0
 SPIN MULTIPLICITY                            =    1
 NUMBER OF OCCUPIED ORBITALS (ALPHA)          =   72
 NUMBER OF OCCUPIED ORBITALS (BETA )          =   72
 TOTAL NUMBER OF ATOMS                        =   36
 THE NUCLEAR REPULSION ENERGY IS     3817.8926668469

 THE PARAMETERS USED IN THIS CALCULATION ARE DESCRIBED IN:

  C: (PM3): J. J. P. STEWART, J. COMP. CHEM. 10, 209 (1989).                    

 THERE ARE   36 HEAVY AND    0 LIGHT ATOMS,
 YIELDING A TOTAL OF     63000 MOPAC 2E- INTEGRALS.

     $CONTRL OPTIONS
     ---------------
 SCFTYP=RHF          RUNTYP=OPTIMIZE     EXETYP=RUN     
 MPLEVL=       0     CITYP =NONE         CCTYP =NONE         VBTYP =NONE    
 DFTTYP=NONE         TDDFT =NONE    
 MULT  =       1     ICHARG=       0     NZVAR =       0     COORD =UNIQUE  
 PP    =NONE         RELWFN=NONE         LOCAL =NONE         NUMGRD=       F
 ISPHER=      -1     NOSYM =       0     MAXIT =     200     UNITS =ANGS    
 PLTORB=       F     MOLPLT=       F     AIMPAC=       F     FRIEND=        
 NPRINT=       7     IREST =       0     GEOM  =INPUT   
 NORMF =       0     NORMP =       0     ITOL  =      20     ICUT  =       9
 INTTYP=BEST         GRDTYP=BEST         QMTTOL= 1.0E-06

     $SYSTEM OPTIONS
     ---------------
  REPLICATED MEMORY=    10000000 WORDS (ON EVERY NODE).
 DISTRIBUTED MEMDDI=           0 MILLION WORDS IN AGGREGATE,
 MEMDDI DISTRIBUTED OVER   2 PROCESSORS IS           0 WORDS/PROCESSOR.
 TOTAL MEMORY REQUESTED ON EACH PROCESSOR=    10000000 WORDS.
 TIMLIM=      525600.00 MINUTES, OR     365.0 DAYS.
 PARALL= T  BALTYP=  DLB     KDIAG=    0  COREFL= F
 MXSEQ2=     300 MXSEQ3=     150  mem10=         0  mem22=         0

          ----------------
          PROPERTIES INPUT
          ----------------

     MOMENTS            FIELD           POTENTIAL          DENSITY
 IEMOM =       1   IEFLD =       0   IEPOT =       0   IEDEN =       0
 WHERE =COMASS     WHERE =NUCLEI     WHERE =NUCLEI     WHERE =NUCLEI  
 OUTPUT=BOTH       OUTPUT=BOTH       OUTPUT=BOTH       OUTPUT=BOTH    
 IEMINT=       0   IEFINT=       0                     IEDINT=       0
                                                       MORB  =       0
          EXTRAPOLATION IN EFFECT
          SOSCF IN EFFECT
 ORBITAL PRINTING OPTION: NPREO=     1   144     2     1

     -------------------------------
     INTEGRAL TRANSFORMATION OPTIONS
     -------------------------------
     NWORD  =            0
     CUTTRF = 1.0E-09     MPTRAN =       0
     DIRTRF =       T     AOINTS =DUP     

          ----------------------
          INTEGRAL INPUT OPTIONS
          ----------------------
 NOPK  =       1 NORDER=       0 SCHWRZ=       T

     ------------------------------------------
     THE POINT GROUP IS C1 , NAXIS= 0, ORDER= 1
     ------------------------------------------

     DIMENSIONS OF THE SYMMETRY SUBSPACES ARE
 A   =  144

 ..... DONE SETTING UP THE RUN .....
 CPU     0: STEP CPU TIME=     0.00 TOTAL CPU TIME=          0.0 (      0.0 MIN)
 TOTAL WALL CLOCK TIME=          0.0 SECONDS, CPU UTILIZATION IS     0.00%


          -----------------------------
          STATIONARY POINT LOCATION RUN
          -----------------------------

 OBTAINING INITIAL HESSIAN, HESS=GUESS   
 CARTESIAN COORDINATE OPTIMIZATION USING BADGER'S RULE FORCE CONSTANT GUESS

          PARAMETERS CONTROLLING GEOMETRY SEARCH ARE
          METHOD =QA                  UPHESS =BFGS    
          NNEG   =         0          NFRZ   =         0
          NSTEP  =       100          IFOLOW =         1
          HESS   =GUESS               RESTAR =         F
          IHREP  =         0          HSSEND =         F
          NPRT   =         0          NPUN   =         0
          OPTTOL = 1.000E-03          RMIN   = 1.500E-03
          RMAX   = 1.000E-01          RLIM   = 7.000E-02
          DXMAX  = 3.000E-01          PURIFY =         F
          MOVIE  =         F          TRUPD  =         T
          TRMAX  = 5.000E-01          TRMIN  = 5.000E-02
          ITBMAT =         5          STPT   =         F
          STSTEP = 1.000E-02          PROJCT=          T

 BEGINNING GEOMETRY SEARCH POINT NSERCH=   0 ...

 COORDINATES OF ALL ATOMS ARE (ANGS)
   ATOM   CHARGE       X              Y              Z
 ------------------------------------------------------------
 C           6.0  -3.3212000000  -0.6202000000   0.0823000000
 C           6.0  -2.4962000000  -1.6621000000  -0.2780000000
 C           6.0  -0.4358000000  -1.5100000000  -1.5485000000
 C           6.0  -1.7844000000  -1.1961000000  -1.4022000000
 C           6.0   1.6186000000  -1.9658000000  -0.7187000000
 C           6.0   0.2872000000  -2.2933000000  -0.6086000000
 C           6.0  -3.2384000000   0.4026000000  -0.8255000000
 C           6.0  -2.2334000000   0.0895000000  -1.6971000000
 C           6.0  -2.7741000000   1.5056000000  -0.1824000000
 C           6.0  -1.6379000000   1.9728000000  -0.7685000000
 C           6.0   0.6682000000   2.2745000000  -0.1534000000
 C           6.0  -0.6654000000   2.2604000000   0.1606000000
 C           6.0   0.4885000000  -0.5542000000  -2.0305000000
 C           6.0   0.1159000000   0.8273000000  -1.9967000000
 C           6.0  -1.2502000000   1.0823000000  -1.7884000000
 C           6.0   1.1174000000   1.6183000000  -1.3427000000
 C           6.0  -2.4270000000   1.1874000000   1.0950000000
 C           6.0  -2.7744000000  -0.1263000000   1.2669000000
 C           6.0  -1.7661000000  -0.9651000000   1.6320000000
 C           6.0  -1.1147000000   1.6160000000   1.3490000000
 C           6.0   1.2347000000   1.0628000000   1.7217000000
 C           6.0  -0.1254000000   0.7960000000   1.9748000000
 C           6.0  -0.4990000000  -0.5831000000   2.0366000000
 C           6.0   1.6680000000   1.9947000000   0.7625000000
 C           6.0  -0.3091000000  -2.3191000000   0.6595000000
 C           6.0  -1.6440000000  -2.0113000000   0.7495000000
 C           6.0   1.7693000000  -1.2344000000   1.4129000000
 C           6.0   0.4297000000  -1.5489000000   1.5955000000
 C           6.0   2.5040000000  -1.6496000000   0.2900000000
 C           6.0   2.2197000000   0.0679000000   1.6243000000
 C           6.0   3.3428000000  -0.6170000000  -0.0791000000
 C           6.0   3.2657000000   0.4244000000   0.7959000000
 C           6.0   2.8120000000   1.5460000000   0.1800000000
 C           6.0   1.7496000000  -0.9429000000  -1.6245000000
 C           6.0   2.7728000000  -0.1210000000  -1.2555000000
 C           6.0   2.4297000000   1.1943000000  -1.0874000000

          ********************
          1 ELECTRON INTEGRALS
          ********************

          **************************
          1 AND 2 ELECTRON INTEGRALS
          **************************

 MOPAC ONE- AND TWO-ELECTRON INTEGRALS REQUIRE     83880 WORDS.
 ...... END OF ONE- AND TWO-ELECTRON INTEGRALS......
 CPU     0: STEP CPU TIME=     0.00 TOTAL CPU TIME=          0.0 (      0.0 MIN)
 TOTAL WALL CLOCK TIME=          0.0 SECONDS, CPU UTILIZATION IS     0.00%
 ...... END OF ONE-ELECTRON INTEGRALS ......
 CPU     0: STEP CPU TIME=     0.00 TOTAL CPU TIME=          0.0 (      0.0 MIN)
 TOTAL WALL CLOCK TIME=          0.0 SECONDS, CPU UTILIZATION IS     0.00%

          -------------
          GUESS OPTIONS
          -------------
          GUESS =HUCKEL            NORB  =       0          NORDER=       0
          MIX   =       F          PRTMO =       F          PUNMO =       F
          TOLZ  = 1.0E-08          TOLE  = 1.0E-05
          SYMDEN=       F          PURIFY=       F

 INITIAL GUESS ORBITALS GENERATED BY HUCKEL   ROUTINE.

 SYMMETRIES FOR INITIAL GUESS ORBITALS FOLLOW.   BOTH SET(S).
    72 ORBITALS ARE OCCUPIED (    0 CORE ORBITALS).
     1=A        2=A        3=A        4=A        5=A        6=A        7=A   
     8=A        9=A       10=A       11=A       12=A       13=A       14=A   
    15=A       16=A       17=A       18=A       19=A       20=A       21=A   
    22=A       23=A       24=A       25=A       26=A       27=A       28=A   
    29=A       30=A       31=A       32=A       33=A       34=A       35=A   
    36=A       37=A       38=A       39=A       40=A       41=A       42=A   
    43=A       44=A       45=A       46=A       47=A       48=A       49=A   
    50=A       51=A       52=A       53=A       54=A       55=A       56=A   
    57=A       58=A       59=A       60=A       61=A       62=A       63=A   
    64=A       65=A       66=A       67=A       68=A       69=A       70=A   
    71=A       72=A       73=A       74=A       75=A       76=A       77=A   
    78=A       79=A       80=A       81=A       82=A   
 ...... END OF INITIAL ORBITAL SELECTION ......
 CPU     0: STEP CPU TIME=     0.00 TOTAL CPU TIME=          0.0 (      0.0 MIN)
 TOTAL WALL CLOCK TIME=          0.0 SECONDS, CPU UTILIZATION IS     0.00%

          --------------------------
               R-PM3 SCF CALCULATION
          --------------------------

     NUCLEAR ENERGY =      1524.1553524880
     MAXIT =  200     NPUNCH=    2
     EXTRAP=T  DAMP=F  SHIFT=F  RSTRCT=F  DIIS=F  DEM=F  SOSCF=T
     DENSITY MATRIX CONV=  2.00E-05
     SOSCF WILL OPTIMIZE    5184 ORBITAL ROTATIONS, SOGTOL=   0.250
     MEMORY REQUIRED FOR RHF ITERS=    231480 WORDS.

                                                                                   NONZERO     BLOCKS
 ITER EX DEM     TOTAL ENERGY        E CHANGE  DENSITY CHANGE     ORB. GRAD      INTEGRALS    SKIPPED
   1  0  0     -153.9450457291  -153.9450457291   0.176423814   0.000000000              0          0
          ---------------START SECOND ORDER SCF---------------
   2  1  0     -155.0462219980    -1.1011762689   0.051221965   0.016837993              0          0
   3  2  0     -155.1366956290    -0.0904736310   0.029794940   0.006674202              0          0
   4  3  0     -155.1483352810    -0.0116396519   0.015808397   0.004184916              0          0
   5  4  0     -155.1507479762    -0.0024126952   0.008541729   0.002104554              0          0
   6  5  0     -155.1515727241    -0.0008247479   0.023587967   0.002138350              0          0
   7  6  0     -155.1525573141    -0.0009845900   0.016533687   0.001336338              0          0
   8  7  0     -155.1530492235    -0.0004919094   0.047193920   0.001527944              0          0
   9  8  0     -155.1540800614    -0.0010308379   0.044598307   0.001827535              0          0
  10  9  0     -155.1549376140    -0.0008575526   0.037826590   0.001805059              0          0
  11 10  0     -155.1557412191    -0.0008036052   0.024694993   0.001436860              0          0
  12 11  0     -155.1562852348    -0.0005440157   0.016369979   0.000989872              0          0
  13 12  0     -155.1565811200    -0.0002958853   0.007157499   0.000742424              0          0
  14 13  0     -155.1567156117    -0.0001344917   0.007381020   0.000455525              0          0
  15 14  0     -155.1567854779    -0.0000698662   0.005869185   0.000540287              0          0
  16 15  0     -155.1568408588    -0.0000553809   0.011898882   0.000489120              0          0
  17 16  0     -155.1569024648    -0.0000616060   0.014896865   0.000453862              0          0
  18 17  0     -155.1569819845    -0.0000795197   0.018050031   0.000381705              0          0
  19 18  0     -155.1570641581    -0.0000821736   0.010869228   0.000415277              0          0
  20 19  0     -155.1571309278    -0.0000667697   0.007460518   0.000343711              0          0
  21 20  0     -155.1571664061    -0.0000354783   0.003115740   0.000300826              0          0
  22 21  0     -155.1571834936    -0.0000170874   0.003500442   0.000253310              0          0
  23 22  0     -155.1571934764    -0.0000099828   0.002368671   0.000148945              0          0
  24 23  0     -155.1571990231    -0.0000055467   0.001061951   0.000084049              0          0
  25 24  0     -155.1572009420    -0.0000019190   0.000468228   0.000040970              0          0
  26 25  0     -155.1572015159    -0.0000005739   0.000286381   0.000023747              0          0
  27 26  0     -155.1572017074    -0.0000001916   0.000192169   0.000018578              0          0
  28 27  0     -155.1572017878    -0.0000000803   0.000123347   0.000011078              0          0
  29 28  0     -155.1572018207    -0.0000000329   0.000070799   0.000005716              0          0
  30 29  0     -155.1572018326    -0.0000000119   0.000033111   0.000003702              0          0
  31 30  0     -155.1572018364    -0.0000000038   0.000018219   0.000002071              0          0
  32 31  0     -155.1572018378    -0.0000000013   0.000015871   0.000001360              0          0

          -----------------
          DENSITY CONVERGED
          -----------------
     TIME TO FORM FOCK OPERATORS=       0.0 SECONDS (       0.0 SEC/ITER)
     FOCK TIME ON FIRST ITERATION=       0.0, LAST ITERATION=       0.0
     TIME TO SOLVE SCF EQUATIONS=       0.1 SECONDS (       0.0 SEC/ITER)

 FINAL R-PM3 ENERGY IS     -155.1572018378 AFTER  32 ITERATIONS

 HEAT OF FORMATION IS      1129.19758 KCAL/MOL
 

          ------------
          EIGENVECTORS
          ------------

                      1          2          3          4          5
                   -1.9543    -1.8327    -1.6589    -1.5859    -1.4901
                     A          A          A          A          A   
    1  C  1  S    0.172473   0.234899   0.035939  -0.023277   0.254984
    2  C  1  X    0.055190   0.069492   0.023819  -0.013381   0.055936
    3  C  1  Y    0.020356   0.032281  -0.042255   0.013160   0.037943
    4  C  1  Z   -0.005022  -0.008569   0.008851  -0.048863  -0.024106
    5  C  2  S    0.163791   0.190500   0.146834  -0.018632   0.138803
    6  C  2  X    0.023964   0.011744   0.048717  -0.002429  -0.037136
    7  C  2  Y    0.045139   0.062285   0.004761   0.007807   0.072082
    8  C  2  Z    0.012303   0.014627   0.024293  -0.059707   0.000974
    9  C  3  S    0.147444   0.029579   0.188853   0.217638  -0.153766
   10  C  3  X    0.006960  -0.041877   0.026037   0.035637  -0.050427
   11  C  3  Y    0.018590   0.008007  -0.012939   0.048619  -0.011064
   12  C  3  Z    0.025912   0.007681   0.050624  -0.002286  -0.020473
   13  C  4  S    0.160117   0.153782   0.110493   0.148447   0.050545
   14  C  4  X    0.003080  -0.026120   0.027767   0.032261  -0.080114
   15  C  4  Y    0.025225   0.033267  -0.029625   0.042881   0.029997
   16  C  4  Z    0.032708   0.038455   0.035432  -0.017835   0.030407
   17  C  5  S    0.163664  -0.134741   0.227208   0.163584  -0.052187
   18  C  5  X   -0.008441  -0.022100  -0.041480  -0.020816   0.079859
   19  C  5  Y    0.042855  -0.045211   0.031994   0.048505   0.013980
   20  C  5  Z    0.012163  -0.013403   0.017852  -0.043637   0.019731
   21  C  6  S    0.146856  -0.026632   0.267932   0.111444  -0.177995
   22  C  6  X    0.002702  -0.036937   0.000006   0.024292   0.007913
   23  C  6  Y    0.037546  -0.009241   0.053672   0.042964  -0.039214
   24  C  6  Z    0.009173   0.002446   0.025922  -0.059797  -0.006445
   25  C  7  S    0.173217   0.236986  -0.072331   0.091699   0.235987
   26  C  7  X    0.053070   0.066647  -0.027668   0.041412   0.041594
   27  C  7  Y   -0.009851  -0.014774  -0.039506   0.004625  -0.041279
   28  C  7  Z    0.027033   0.040126  -0.007641  -0.027734   0.046561
   29  C  8  S    0.168318   0.195110  -0.045559   0.193012   0.113584
   30  C  8  X    0.011059  -0.006613   0.000357   0.040864  -0.059800
   31  C  8  Y    0.002643   0.004450  -0.053837   0.010952  -0.017146
   32  C  8  Z    0.048115   0.064108  -0.012692   0.021703   0.059898
   33  C  9  S    0.174053   0.221701  -0.170476   0.054634   0.103694
   34  C  9  X    0.038114   0.037063  -0.057123   0.014683  -0.036360
   35  C  9  Y   -0.042411  -0.061427   0.007628  -0.009721  -0.077121
   36  C  9  Z    0.002083   0.002089   0.000811  -0.047939  -0.007638
   37  C 10  S    0.162615   0.155556  -0.222727   0.109681  -0.089441
   38  C 10  X    0.002734  -0.024942  -0.018950   0.003163  -0.077176
   39  C 10  Y   -0.042506  -0.048865   0.034974  -0.040709  -0.015674
   40  C 10  Z    0.020606   0.021349  -0.037039  -0.034232  -0.019623
   41  C 11  S    0.150025  -0.065456  -0.243848  -0.014740  -0.226631
   42  C 11  X    0.005258  -0.046580   0.001096  -0.013573   0.039858
   43  C 11  Y   -0.036397   0.020883   0.044746  -0.000594   0.036975
   44  C 11  Z    0.004722  -0.003996  -0.010434  -0.050926  -0.004310
   45  C 12  S    0.149918   0.067666  -0.244450  -0.010740  -0.231077
   46  C 12  X   -0.004554  -0.046512  -0.000915  -0.013791  -0.037256
   47  C 12  Y   -0.035863  -0.021517   0.043869   0.005320   0.036782
   48  C 12  Z   -0.004841  -0.004095   0.013028  -0.050883   0.005868
   49  C 13  S    0.145214  -0.044251   0.095030   0.285538  -0.177437
   50  C 13  X    0.002769  -0.038081   0.005686  -0.000590   0.013650
   51  C 13  Y    0.000189   0.001966  -0.057569  -0.000510  -0.001130
   52  C 13  Z    0.034583  -0.014274   0.032178   0.050263  -0.033306
   53  C 14  S    0.134141  -0.004084  -0.076882   0.232041  -0.189973
   54  C 14  X   -0.001286  -0.040147   0.007524  -0.009304  -0.003472
   55  C 14  Y   -0.010534   0.002356  -0.042273  -0.040990   0.002470
   56  C 14  Z    0.029672  -0.002815  -0.029126   0.028720  -0.038780
   57  C 15  S    0.151208   0.121112  -0.132296   0.217513  -0.086122
   58  C 15  X   -0.005324  -0.038492   0.004089   0.009706  -0.072374
   59  C 15  Y   -0.015145  -0.014104  -0.026552  -0.036853  -0.016066
   60  C 15  Z    0.037484   0.037295  -0.046213   0.024191  -0.009184
   61  C 16  S    0.148146  -0.096598  -0.170251   0.115746  -0.166434
   62  C 16  X    0.001919  -0.036924   0.006809  -0.022335   0.055177
   63  C 16  Y   -0.022290   0.017817  -0.007929  -0.044121   0.006173
   64  C 16  Z    0.031068  -0.027766  -0.054803  -0.023057  -0.023564
   65  C 17  S    0.166205   0.196925  -0.125165  -0.083766   0.041707
   66  C 17  X    0.019670   0.006985  -0.028134  -0.027425  -0.063233
   67  C 17  Y   -0.026398  -0.037074  -0.024956   0.031390  -0.049434
   68  C 17  Z   -0.038467  -0.052358   0.043994  -0.026506  -0.035253
   69  C 18  S    0.170234   0.214217   0.020432  -0.138042   0.142299
   70  C 18  X    0.030989   0.027215   0.013819  -0.051103  -0.025087
   71  C 18  Y    0.000535   0.002940  -0.055265   0.017490  -0.005422
   72  C 18  Z   -0.042992  -0.061760   0.004384  -0.007471  -0.074117
   73  C 19  S    0.165167   0.153624   0.151859  -0.241454  -0.031750
   74  C 19  X    0.009208  -0.018880   0.032199  -0.043615  -0.080971
   75  C 19  Y    0.010342   0.015398  -0.040331  -0.012916   0.010814
   76  C 19  Z   -0.040630  -0.046523  -0.039351   0.024648  -0.027448
   77  C 20  S    0.146551   0.098533  -0.164334  -0.133315  -0.166977
   78  C 20  X   -0.001266  -0.036165  -0.006079  -0.022214  -0.053465
   79  C 20  Y   -0.022438  -0.018488  -0.009149   0.043635   0.005585
   80  C 20  Z   -0.031082  -0.027989   0.056014  -0.016258   0.026375
   81  C 21  S    0.155471  -0.119844  -0.123133  -0.220871  -0.083621
   82  C 21  X    0.006814  -0.040918  -0.005523   0.010413   0.073568
   83  C 21  Y   -0.014081   0.012456  -0.032608   0.031303  -0.016233
   84  C 21  Z   -0.036982   0.036354   0.044844   0.023328   0.007017
   85  C 22  S    0.134857   0.009059  -0.062817  -0.237237  -0.186218
   86  C 22  X    0.000951  -0.040113  -0.005911  -0.006575   0.003379
   87  C 22  Y   -0.009966  -0.002664  -0.046886   0.036244   0.000743
   88  C 22  Z   -0.029441  -0.003377   0.027747   0.030510   0.037743
   89  C 23  S    0.144824   0.048837   0.115250  -0.278929  -0.171074
   90  C 23  X   -0.002342  -0.037689  -0.004331   0.000441  -0.016810
   91  C 23  Y   -0.000495  -0.001926  -0.058624  -0.002025   0.000119
   92  C 23  Z   -0.034475  -0.015064  -0.035189   0.048390   0.031831
   93  C 24  S    0.163368  -0.154231  -0.217051  -0.124176  -0.077775
   94  C 24  X   -0.002935  -0.024264   0.019347   0.006718   0.077680
   95  C 24  Y   -0.043807   0.049210   0.034503   0.041506  -0.016887
   96  C 24  Z   -0.021600   0.022236   0.038773  -0.026522   0.017788
   97  C 25  S    0.145767   0.032119   0.273838  -0.103974  -0.174469
   98  C 25  X   -0.002354  -0.036429  -0.000846   0.023774  -0.012655
   99  C 25  Y    0.038183   0.010451   0.058072  -0.040930  -0.039372
  100  C 25  Z   -0.008850   0.001851  -0.021419  -0.058305   0.006043
  101  C 26  S    0.159364   0.136137   0.233506  -0.151871  -0.039834
  102  C 26  X    0.010023  -0.019358   0.044376  -0.020029  -0.078977
  103  C 26  Y    0.043079   0.046439   0.036845  -0.047359   0.016715
  104  C 26  Z   -0.011745  -0.013514  -0.014382  -0.042536  -0.020377
  105  C 27  S    0.160765  -0.147383   0.127634  -0.132886   0.037028
  106  C 27  X   -0.003387  -0.026226  -0.029954   0.032213   0.079141
  107  C 27  Y    0.025576  -0.032690  -0.024629  -0.041096   0.030360
  108  C 27  Z   -0.034217   0.038963  -0.035745  -0.018991  -0.027798
  109  C 28  S    0.146246  -0.024212   0.204505  -0.204416  -0.155943
  110  C 28  X   -0.007026  -0.040947  -0.027614   0.035959   0.045596
  111  C 28  Y    0.019059  -0.007431  -0.007841  -0.048153  -0.011540
  112  C 28  Z   -0.027361   0.007317  -0.052246  -0.001150   0.023177
  113  C 29  S    0.167008  -0.189291   0.148009   0.028787   0.128898
  114  C 29  X   -0.024985   0.012047  -0.049895  -0.004794   0.038790
  115  C 29  Y    0.046157  -0.062172   0.005823  -0.005519   0.070508
  116  C 29  Z   -0.011808   0.013996  -0.019192  -0.058795   0.000145
  117  C 30  S    0.174858  -0.197306  -0.030125  -0.183448   0.116609
  118  C 30  X   -0.009661  -0.009535  -0.003930   0.040055   0.063292
  119  C 30  Y    0.002567  -0.004859  -0.057960  -0.015595  -0.013224
  120  C 30  Z   -0.047625   0.062415   0.010106   0.015505  -0.059221
  121  C 31  S    0.174801  -0.233050   0.035456   0.027630   0.250287
  122  C 31  X   -0.056559   0.069690  -0.023674  -0.015515  -0.054501
  123  C 31  Y    0.021845  -0.033853  -0.040945  -0.015371   0.042582
  124  C 31  Z    0.005484  -0.008933  -0.005414  -0.045669   0.024852
  125  C 32  S    0.175765  -0.235841  -0.067721  -0.085990   0.239063
  126  C 32  X   -0.054169   0.066799   0.025773   0.039398  -0.043444
  127  C 32  Y   -0.010796   0.015692  -0.040012  -0.008501  -0.040030
  128  C 32  Z   -0.028258   0.041005   0.009609  -0.024663  -0.047336
  129  C 33  S    0.173667  -0.217452  -0.166866  -0.065599   0.110945
  130  C 33  X   -0.039471   0.038441   0.057134   0.020027   0.031357
  131  C 33  Y   -0.044124   0.062307   0.009582   0.009321  -0.076635
  132  C 33  Z   -0.002340   0.002450   0.001374  -0.042578   0.007290
  133  C 34  S    0.166900  -0.150010   0.137054   0.248521  -0.044732
  134  C 34  X   -0.008624  -0.020052  -0.028808  -0.045377   0.081379
  135  C 34  Y    0.010989  -0.015521  -0.040023   0.010900   0.010125
  136  C 34  Z    0.041432  -0.046061   0.038512   0.027219   0.024116
  137  C 35  S    0.174010  -0.213982   0.013776   0.136450   0.137655
  138  C 35  X   -0.030918   0.025920  -0.011653  -0.051257   0.028599
  139  C 35  Y    0.001198  -0.003911  -0.054415  -0.021282  -0.001668
  140  C 35  Z    0.044146  -0.062051  -0.003659  -0.007771   0.074582
  141  C 36  S    0.169756  -0.197008  -0.129920   0.069423   0.045280
  142  C 36  X   -0.019179   0.005740   0.028639  -0.024191   0.064051
  143  C 36  Y   -0.026648   0.036491  -0.024196  -0.033816  -0.047108
  144  C 36  Z    0.039352  -0.052618  -0.043083  -0.030517   0.038250

                      6          7          8          9         10
                   -1.4560    -1.3729    -1.2721    -1.2334    -1.1949
                     A          A          A          A          A   
    1  C  1  S   -0.120217  -0.067739   0.117130  -0.018173   0.216911
    2  C  1  X   -0.050662  -0.018234   0.017229  -0.007481   0.055457
    3  C  1  Y    0.065806  -0.011853   0.023470   0.001878  -0.056538
    4  C  1  Z    0.012391  -0.096268  -0.006972  -0.008628  -0.018806
    5  C  2  S   -0.254414   0.024020   0.061974   0.056631   0.206537
    6  C  2  X   -0.041629   0.020109  -0.015011   0.044456  -0.046282
    7  C  2  Y   -0.038085   0.009663   0.033167  -0.032213   0.070627
    8  C  2  Z   -0.017941  -0.088769  -0.040898   0.010322   0.026415
    9  C  3  S   -0.095378   0.108852   0.240657   0.002761  -0.199997
   10  C  3  X    0.056960  -0.066207   0.058577   0.003026  -0.030023
   11  C  3  Y   -0.015460   0.022097  -0.007056  -0.105033  -0.007288
   12  C  3  Z   -0.013994   0.010495   0.019151   0.086883  -0.017887
   13  C  4  S   -0.200910   0.224897   0.114378  -0.039516   0.008983
   14  C  4  X    0.005493   0.006139   0.022703  -0.001676  -0.103427
   15  C  4  Y    0.005363   0.057026  -0.025224  -0.070208   0.007040
   16  C  4  Z   -0.049868  -0.006215   0.013272   0.047577   0.048779
   17  C  5  S    0.203353  -0.082868   0.164811   0.134221   0.134007
   18  C  5  X    0.030616  -0.031039  -0.073182  -0.060059   0.100744
   19  C  5  Y    0.041648  -0.049186   0.019920  -0.039631   0.035855
   20  C  5  Z    0.041053   0.048880  -0.063180   0.057738   0.073374
   21  C  6  S    0.030729   0.043171   0.174426   0.287292  -0.129031
   22  C  6  X    0.076745  -0.032667   0.032130  -0.015823   0.068139
   23  C  6  Y    0.005328   0.001470   0.055231   0.008285  -0.031621
   24  C  6  Z    0.010524   0.022866  -0.099339   0.079706   0.023828
   25  C  7  S    0.030386   0.106964   0.025912   0.017362   0.018573
   26  C  7  X    0.015150   0.059600  -0.026443  -0.000130  -0.020625
   27  C  7  Y    0.081009  -0.011751  -0.051519   0.036271  -0.106376
   28  C  7  Z    0.018829  -0.077150   0.052613   0.021322   0.008858
   29  C  8  S   -0.045744   0.284923  -0.069134  -0.108866  -0.020007
   30  C  8  X   -0.009621   0.035527  -0.034995  -0.052728  -0.040348
   31  C  8  Y    0.078644  -0.000056  -0.089373   0.018898  -0.058569
   32  C  8  Z   -0.003827   0.033661   0.008540   0.016035   0.019779
   33  C  9  S    0.228351  -0.017577  -0.017910   0.145525  -0.181798
   34  C  9  X    0.073474   0.003061  -0.036934   0.049345  -0.049681
   35  C  9  Y    0.000041   0.000319  -0.026847   0.018479  -0.003244
   36  C  9  Z    0.021807  -0.098827   0.076907   0.009088  -0.009430
   37  C 10  S    0.212120   0.072459  -0.192900   0.155206  -0.068627
   38  C 10  X   -0.026961  -0.007684  -0.026556  -0.008035   0.099571
   39  C 10  Y   -0.031350  -0.046060   0.047197   0.013702   0.042177
   40  C 10  Z    0.065526  -0.065054   0.059476   0.077747  -0.021854
   41  C 11  S   -0.143222  -0.030032   0.010507   0.181903   0.313942
   42  C 11  X   -0.093377  -0.008624   0.024564   0.011201  -0.044551
   43  C 11  Y    0.036658   0.006425   0.003445  -0.003809  -0.033848
   44  C 11  Z    0.013580   0.025610   0.102858   0.020416  -0.004788
   45  C 12  S    0.138838  -0.038900  -0.000840   0.188240   0.162972
   46  C 12  X   -0.093679   0.014662   0.026346  -0.016650   0.133836
   47  C 12  Y   -0.036553   0.008626  -0.004987  -0.004238   0.004137
   48  C 12  Z    0.013585  -0.026858   0.102070  -0.025542  -0.031635
   49  C 13  S   -0.044958  -0.050105   0.130851  -0.255981  -0.115573
   50  C 13  X    0.028193  -0.093371   0.008783   0.006540   0.034008
   51  C 13  Y   -0.029964  -0.004552  -0.121163  -0.080999   0.050985
   52  C 13  Z    0.002059  -0.013880   0.042305  -0.006170  -0.017316
   53  C 14  S   -0.087305   0.015051  -0.185397  -0.271444   0.061137
   54  C 14  X   -0.029140  -0.089193   0.028196   0.001883   0.026976
   55  C 14  Y    0.005389  -0.004872  -0.061639   0.073718   0.071952
   56  C 14  Z   -0.014687  -0.005040  -0.034902  -0.003499   0.036339
   57  C 15  S    0.037767   0.209751  -0.261628  -0.131470  -0.034686
   58  C 15  X   -0.039008  -0.046284  -0.011013  -0.057436   0.060371
   59  C 15  Y    0.037013  -0.047998  -0.026370   0.076252   0.028458
   60  C 15  Z    0.039619   0.023717  -0.044306   0.040692  -0.005776
   61  C 16  S   -0.201654  -0.124873  -0.172766  -0.020155   0.184916
   62  C 16  X   -0.041083  -0.047240   0.025131   0.036148  -0.071289
   63  C 16  Y    0.010724   0.033017   0.026177   0.080554   0.030710
   64  C 16  Z   -0.051743  -0.006999   0.016088   0.085809   0.048806
   65  C 17  S    0.210684  -0.221866   0.131480   0.027925  -0.160070
   66  C 17  X    0.043488  -0.022033   0.010390  -0.008920  -0.022812
   67  C 17  Y    0.031025   0.053520  -0.025045   0.063284  -0.021126
   68  C 17  Z   -0.054075  -0.005129   0.006435  -0.070819   0.033936
   69  C 18  S   -0.012702  -0.265917   0.094434  -0.094283   0.038828
   70  C 18  X    0.002121  -0.055979  -0.013785  -0.045251  -0.029927
   71  C 18  Y    0.091140  -0.006221   0.045276   0.013589  -0.088056
   72  C 18  Z    0.012591   0.013136  -0.034859  -0.026104  -0.044866
   73  C 19  S   -0.101951  -0.214259  -0.142462  -0.130926  -0.028130
   74  C 19  X    0.018953   0.036894  -0.085212  -0.018509  -0.083019
   75  C 19  Y    0.049056  -0.044671   0.070744  -0.079504  -0.015052
   76  C 19  Z    0.053850   0.032744   0.008339  -0.030584  -0.040131
   77  C 20  S    0.197197  -0.134659   0.169629  -0.021080  -0.041864
   78  C 20  X   -0.040777   0.050162   0.028632  -0.038958   0.085448
   79  C 20  Y   -0.011251   0.031985  -0.023710   0.082768   0.033296
   80  C 20  Z   -0.051733   0.011476   0.012056  -0.088488  -0.006397
   81  C 21  S   -0.037272   0.206515   0.264509  -0.141221   0.013376
   82  C 21  X   -0.039196   0.046287  -0.007923   0.058394  -0.060167
   83  C 21  Y   -0.042119  -0.047013   0.027865   0.077948   0.015829
   84  C 21  Z    0.040723  -0.020455  -0.041275  -0.041683  -0.008181
   85  C 22  S    0.085881   0.015218   0.177427  -0.282345  -0.003332
   86  C 22  X   -0.026976   0.089200   0.029891  -0.003360   0.039687
   87  C 22  Y   -0.003663  -0.009660   0.065769   0.072574   0.039451
   88  C 22  Z   -0.014164   0.004908  -0.035772   0.003981  -0.014545
   89  C 23  S    0.035316  -0.031909  -0.142027  -0.258165  -0.109621
   90  C 23  X    0.031234   0.092862   0.013054  -0.006980   0.027154
   91  C 23  Y    0.031943  -0.010557   0.118922  -0.085037   0.017652
   92  C 23  Z    0.004110   0.009752   0.040475   0.006622   0.017929
   93  C 24  S   -0.216703   0.078186   0.193745   0.143176   0.041462
   94  C 24  X   -0.024180   0.006483  -0.030912   0.008771  -0.133398
   95  C 24  Y    0.032042  -0.045780  -0.048542   0.014004   0.052205
   96  C 24  Z    0.066559   0.057091   0.056639  -0.074107  -0.036130
   97  C 25  S   -0.044965   0.053024  -0.171619   0.286788  -0.131096
   98  C 25  X    0.076778   0.033378   0.033376   0.014618   0.024600
   99  C 25  Y   -0.007815   0.005755  -0.053913   0.010381  -0.024750
  100  C 25  Z    0.011294  -0.015430  -0.098924  -0.080441   0.015032
  101  C 26  S   -0.210223  -0.072581  -0.162602   0.136511   0.003635
  102  C 26  X    0.023473   0.033846  -0.071561   0.062567  -0.107219
  103  C 26  Y   -0.044723  -0.046628  -0.022850  -0.037709   0.031563
  104  C 26  Z    0.037969  -0.040695  -0.067757  -0.056825  -0.029956
  105  C 27  S    0.212466   0.228684  -0.094463  -0.037321   0.200766
  106  C 27  X    0.010378  -0.010977   0.023481   0.001698   0.030916
  107  C 27  Y    0.001589   0.054585   0.023789  -0.072300  -0.016756
  108  C 27  Z   -0.052642   0.003352   0.007703  -0.047551  -0.062359
  109  C 28  S    0.088708   0.128115  -0.231413   0.003030  -0.017989
  110  C 28  X    0.061179   0.060216   0.065037  -0.003898   0.099577
  111  C 28  Y    0.017352   0.023941   0.005005  -0.105666   0.004807
  112  C 28  Z   -0.013682  -0.013626   0.017584  -0.085435  -0.000421
  113  C 29  S    0.261729   0.025984  -0.049432   0.056729   0.287168
  114  C 29  X   -0.042220  -0.021430  -0.019003  -0.043076  -0.049004
  115  C 29  Y    0.041797   0.009140  -0.030177  -0.031160   0.022314
  116  C 29  Z   -0.013217   0.091596  -0.033785  -0.010627  -0.010702
  117  C 30  S    0.061543   0.278409   0.075784  -0.111946  -0.016045
  118  C 30  X   -0.009023  -0.037415  -0.037089   0.055207  -0.044023
  119  C 30  Y   -0.086048  -0.001905   0.085600   0.016236  -0.101737
  120  C 30  Z   -0.006460  -0.024741   0.008806  -0.018890   0.018562
  121  C 31  S    0.128424  -0.066145  -0.118411  -0.012717   0.017045
  122  C 31  X   -0.053213   0.018717   0.016492   0.006887  -0.049910
  123  C 31  Y   -0.062965  -0.009888  -0.028104   0.002637  -0.142904
  124  C 31  Z    0.016163   0.093411  -0.000385   0.006874   0.006065
  125  C 32  S   -0.024027   0.097763  -0.027883   0.020489  -0.215548
  126  C 32  X    0.014085  -0.055935  -0.027488   0.000297   0.032966
  127  C 32  Y   -0.084880  -0.010292   0.047335   0.034743  -0.087819
  128  C 32  Z    0.018870   0.071947   0.056212  -0.021780   0.058686
  129  C 33  S   -0.226838  -0.007726   0.012881   0.140332  -0.242627
  130  C 33  X    0.076098  -0.006271  -0.037372  -0.046302  -0.030200
  131  C 33  Y    0.001663   0.001114   0.027743   0.013706   0.097672
  132  C 33  Z    0.021538   0.089513   0.077152  -0.010047  -0.015747
  133  C 34  S    0.090593  -0.229462   0.128972  -0.129146   0.022779
  134  C 34  X    0.022526  -0.031321  -0.086603   0.020419   0.061318
  135  C 34  Y   -0.047818  -0.041583  -0.073995  -0.076065  -0.023483
  136  C 34  Z    0.053432  -0.033907   0.010432   0.030528   0.048409
  137  C 35  S    0.012986  -0.263767  -0.111350  -0.086478  -0.053529
  138  C 35  X    0.003958   0.057781  -0.011811   0.044699  -0.026829
  139  C 35  Y   -0.090985  -0.002357  -0.047325   0.012575  -0.098752
  140  C 35  Z    0.015717  -0.009958  -0.034277   0.026735  -0.025793
  141  C 36  S   -0.213317  -0.207889  -0.143874   0.029029  -0.112544
  142  C 36  X    0.044217   0.020673   0.009433   0.010965  -0.087260
  143  C 36  Y   -0.032846   0.055355   0.029793   0.060641   0.046473
  144  C 36  Z   -0.053297   0.010355   0.008249   0.068441  -0.063847

                     11         12         13         14         15
                   -1.1939    -1.1514    -1.0878    -1.0473    -0.9821
                     A          A          A          A          A   
    1  C  1  S    0.126241  -0.050013   0.016757  -0.106790   0.205490
    2  C  1  X   -0.022786  -0.013845  -0.011693  -0.015920  -0.032324
    3  C  1  Y    0.138871  -0.011307   0.036144   0.042664   0.133481
    4  C  1  Z   -0.014606  -0.144302  -0.055117   0.042597  -0.045410
    5  C  2  S   -0.207638   0.038529   0.034350  -0.208124  -0.127221
    6  C  2  X   -0.089485   0.005140   0.017801  -0.014603  -0.076717
    7  C  2  Y    0.024762   0.028322   0.021752   0.002715   0.031200
    8  C  2  Z   -0.008094  -0.108083  -0.129082  -0.041547  -0.008566
    9  C  3  S   -0.126563  -0.088138   0.150550   0.084070  -0.018300
   10  C  3  X    0.098728  -0.067262  -0.107777  -0.033275   0.093657
   11  C  3  Y   -0.013555  -0.028837   0.014684   0.023864  -0.043909
   12  C  3  Z   -0.012074   0.012932   0.019630  -0.010942   0.039491
   13  C  4  S   -0.221759   0.158699   0.247795   0.078768  -0.181608
   14  C  4  X   -0.046505  -0.082534   0.029553   0.057552  -0.023948
   15  C  4  Y    0.037733   0.050860  -0.017462   0.087831   0.002476
   16  C  4  Z   -0.039050   0.016595   0.007839  -0.086358  -0.009833
   17  C  5  S    0.106822   0.055784  -0.189268   0.162296  -0.073491
   18  C  5  X   -0.058598   0.064783  -0.029751   0.015365  -0.096887
   19  C  5  Y   -0.008864   0.034419  -0.061921  -0.026421  -0.052382
   20  C  5  Z    0.015359  -0.012492   0.078090   0.080779  -0.017622
   21  C  6  S    0.070538  -0.043582   0.027048   0.076647   0.193781
   22  C  6  X    0.084944   0.001595  -0.078903   0.062336  -0.038505
   23  C  6  Y    0.006684  -0.017523  -0.004764   0.008665   0.001015
   24  C  6  Z    0.037173   0.026979   0.036934  -0.008622   0.056897
   25  C  7  S    0.278695   0.160350  -0.023467  -0.040502   0.230331
   26  C  7  X    0.026901   0.063169  -0.036481   0.023064  -0.036077
   27  C  7  Y    0.030187  -0.041955  -0.070538   0.001037  -0.063922
   28  C  7  Z    0.073700  -0.089801   0.045743  -0.053448   0.092646
   29  C  8  S    0.026165   0.236532  -0.035271   0.199162  -0.054855
   30  C  8  X   -0.083169  -0.060972  -0.002117   0.087326  -0.082524
   31  C  8  Y    0.068790  -0.033985  -0.154559   0.006180   0.023635
   32  C  8  Z    0.042323   0.060684   0.000627  -0.028735   0.030535
   33  C  9  S    0.168472  -0.020882  -0.016865  -0.142997  -0.075613
   34  C  9  X   -0.076005  -0.001884  -0.018153  -0.044601  -0.137521
   35  C  9  Y   -0.119239  -0.004532  -0.007214  -0.031194  -0.118739
   36  C  9  Z   -0.024883  -0.088518   0.135096  -0.009330  -0.016872
   37  C 10  S   -0.109844  -0.029886  -0.175641  -0.132683  -0.137961
   38  C 10  X   -0.095821  -0.046528   0.009885   0.018975   0.092767
   39  C 10  Y   -0.034111  -0.015041   0.060114  -0.034130   0.019913
   40  C 10  Z   -0.057545  -0.006646   0.094798  -0.102054  -0.064155
   41  C 11  S    0.018613   0.008932   0.005182   0.123228   0.123487
   42  C 11  X    0.134328   0.014362   0.016079   0.086978  -0.153775
   43  C 11  Y   -0.024445   0.007390  -0.011110  -0.009191  -0.000109
   44  C 11  Z   -0.032783   0.067116  -0.068035   0.006385   0.012062
   45  C 12  S   -0.265335   0.017743   0.015472  -0.114412   0.101048
   46  C 12  X    0.037453   0.023742  -0.024235   0.087650   0.167822
   47  C 12  Y    0.040240  -0.009572  -0.012913   0.009846   0.006458
   48  C 12  Z   -0.017253   0.068598   0.063014   0.010987  -0.006773
   49  C 13  S    0.034677  -0.190546  -0.006178  -0.120567   0.018237
   50  C 13  X    0.063276   0.051175  -0.070611  -0.130383  -0.017816
   51  C 13  Y    0.006662  -0.038594   0.044410  -0.039468   0.032000
   52  C 13  Z    0.009760  -0.015114  -0.012101  -0.008807   0.003047
   53  C 14  S    0.012497  -0.268148   0.041406  -0.024352   0.150483
   54  C 14  X    0.066525   0.007588   0.076048  -0.122543  -0.004388
   55  C 14  Y    0.002632   0.013659  -0.010116   0.019145   0.036466
   56  C 14  Z    0.004271  -0.028847   0.007470  -0.002768   0.026911
   57  C 15  S   -0.051860  -0.068473  -0.206887   0.170706   0.002819
   58  C 15  X   -0.041107  -0.131624   0.067644  -0.022021   0.096793
   59  C 15  Y   -0.001083  -0.026089  -0.044383  -0.084684   0.023484
   60  C 15  Z   -0.011905   0.013740  -0.053239  -0.024764  -0.022434
   61  C 16  S    0.162862  -0.098604   0.191473  -0.014086   0.007831
   62  C 16  X    0.064217   0.093823   0.059588  -0.003405  -0.151389
   63  C 16  Y   -0.015511   0.019755  -0.029000   0.085005  -0.005807
   64  C 16  Z    0.029461   0.032838   0.007503   0.080567  -0.037464
   65  C 17  S    0.034415  -0.151567   0.213585   0.063895  -0.103329
   66  C 17  X   -0.113910   0.043858   0.037899   0.017205  -0.082623
   67  C 17  Y   -0.070836   0.063519   0.011805  -0.111424  -0.074546
   68  C 17  Z   -0.051597   0.016986   0.001499   0.101850   0.011306
   69  C 18  S    0.085894  -0.265596  -0.010803   0.183285   0.022198
   70  C 18  X   -0.051120  -0.017173  -0.020171   0.095827  -0.087222
   71  C 18  Y    0.066145   0.006645   0.125942   0.035672   0.037042
   72  C 18  Z   -0.061355   0.029523  -0.014074   0.073288  -0.079975
   73  C 19  S   -0.062193  -0.099571  -0.216013   0.189861  -0.108010
   74  C 19  X    0.020480   0.116339   0.007080   0.008437   0.038753
   75  C 19  Y    0.025812  -0.017784   0.067109   0.131246   0.002143
   76  C 19  Z    0.038002   0.052498   0.047636   0.052278   0.027481
   77  C 20  S   -0.230717   0.111704   0.186890   0.027946  -0.006556
   78  C 20  X   -0.025443   0.098827  -0.060636  -0.006908   0.144357
   79  C 20  Y   -0.016549  -0.018422  -0.024974  -0.084167  -0.007207
   80  C 20  Z    0.056051   0.027707  -0.013758   0.078788   0.040521
   81  C 21  S    0.051119   0.055914  -0.206046  -0.183645   0.019580
   82  C 21  X    0.025358  -0.136644  -0.066581  -0.027490  -0.094294
   83  C 21  Y   -0.018773   0.028786  -0.050891   0.086346   0.031654
   84  C 21  Z   -0.011939   0.016153   0.051692  -0.024468   0.016219
   85  C 22  S   -0.055006   0.265453   0.034715   0.025648   0.137180
   86  C 22  X    0.055186   0.002808  -0.070627  -0.128549   0.013582
   87  C 22  Y   -0.061005  -0.006560  -0.008543  -0.016755   0.041703
   88  C 22  Z    0.030950  -0.030657  -0.005882  -0.000548  -0.026361
   89  C 23  S    0.074562   0.182070  -0.012435   0.115727   0.012231
   90  C 23  X    0.064571   0.047427   0.074436  -0.129044   0.017446
   91  C 23  Y   -0.042539   0.037879   0.039329   0.042739   0.019823
   92  C 23  Z   -0.007174  -0.014849   0.011437  -0.008090  -0.005787
   93  C 24  S    0.124192   0.020873  -0.186921   0.125642  -0.115375
   94  C 24  X    0.025056  -0.056274  -0.002593   0.015196  -0.104647
   95  C 24  Y   -0.013296   0.022128   0.060610   0.040393   0.019792
   96  C 24  Z   -0.055178  -0.011644  -0.088265  -0.105828   0.065595
   97  C 25  S    0.059661   0.035669   0.029144  -0.073559   0.209085
   98  C 25  X    0.108448   0.000518   0.077712   0.063587   0.030693
   99  C 25  Y    0.021631   0.016037  -0.003416  -0.007949   0.006072
  100  C 25  Z    0.040643   0.027636  -0.035668  -0.009829  -0.050693
  101  C 26  S   -0.180542  -0.049105  -0.177969  -0.163970  -0.067563
  102  C 26  X    0.044680   0.055995   0.026973   0.013147   0.111529
  103  C 26  Y   -0.028131  -0.031199  -0.062319   0.021181  -0.059372
  104  C 26  Z    0.065890  -0.010824  -0.077808   0.075305   0.018282
  105  C 27  S    0.122674  -0.152257   0.243917  -0.067127  -0.197374
  106  C 27  X   -0.112188  -0.075752  -0.029998   0.057656   0.022715
  107  C 27  Y   -0.030982  -0.051025  -0.010053  -0.089954  -0.002018
  108  C 27  Z    0.014914   0.016420  -0.002458  -0.086679   0.011047
  109  C 28  S    0.235975   0.078991   0.151453  -0.080969  -0.015057
  110  C 28  X    0.033835  -0.064603   0.103962  -0.028353  -0.104903
  111  C 28  Y    0.014634   0.027924   0.014948  -0.026133  -0.049268
  112  C 28  Z   -0.025216   0.012597  -0.021299  -0.011977  -0.040104
  113  C 29  S   -0.047790  -0.024644   0.019085   0.213481  -0.113187
  114  C 29  X   -0.091746   0.007293  -0.014942  -0.018564   0.091300
  115  C 29  Y   -0.073761  -0.024435   0.018692  -0.003873   0.038033
  116  C 29  Z    0.013976  -0.112670   0.130021  -0.038753  -0.003732
  117  C 30  S   -0.014940  -0.242786  -0.024241  -0.203440  -0.053358
  118  C 30  X   -0.085214  -0.057587   0.002320   0.089210   0.088061
  119  C 30  Y    0.007113   0.025378  -0.154061  -0.017813   0.034101
  120  C 30  Z    0.043917   0.052458  -0.000038  -0.032893  -0.033972
  121  C 31  S   -0.250619   0.058321   0.015189   0.105961   0.224877
  122  C 31  X    0.032497  -0.018531   0.015389  -0.016566   0.025920
  123  C 31  Y   -0.035973   0.002394   0.043606  -0.043392   0.118723
  124  C 31  Z   -0.030703  -0.142659   0.051313   0.039915   0.044692
  125  C 32  S   -0.184280  -0.161767  -0.014597   0.032469   0.223765
  126  C 32  X    0.002424   0.064708   0.036300   0.024987   0.033918
  127  C 32  Y    0.076681   0.032489  -0.064685  -0.004756  -0.081772
  128  C 32  Z    0.044159  -0.085797  -0.047329  -0.050425  -0.080286
  129  C 33  S    0.060097  -0.000772  -0.014998   0.136510  -0.103358
  130  C 33  X   -0.085341  -0.000200   0.023205  -0.045847   0.127814
  131  C 33  Y    0.069245   0.008020  -0.011824   0.032330  -0.103388
  132  C 33  Z   -0.026179  -0.087585  -0.131209  -0.018084   0.026192
  133  C 34  S    0.065323   0.106903  -0.212359  -0.196466  -0.100113
  134  C 34  X   -0.049327   0.122982  -0.006497   0.010394  -0.030556
  135  C 34  Y   -0.000095   0.015775   0.074166  -0.126958   0.004237
  136  C 34  Z   -0.007153   0.056631  -0.052959   0.051198  -0.025901
  137  C 35  S   -0.067807   0.270839   0.000138  -0.177547   0.019862
  138  C 35  X   -0.057454  -0.019956   0.020044   0.095587   0.087444
  139  C 35  Y    0.035052  -0.014137   0.131444  -0.033909   0.014822
  140  C 35  Z   -0.071506   0.027235   0.012400   0.072649   0.078735
  141  C 36  S    0.125207   0.144504   0.221873  -0.051329  -0.130677
  142  C 36  X   -0.082901   0.038279  -0.035712   0.014546   0.068900
  143  C 36  Y    0.056435  -0.063618   0.005757   0.113890  -0.069337
  144  C 36  Z    0.000353   0.009316  -0.006483   0.098747  -0.020028

                     16         17         18         19         20
                   -0.9767    -0.9705    -0.9460    -0.9274    -0.9020
                     A          A          A          A          A   
    1  C  1  S   -0.032715  -0.172001   0.103435   0.049343   0.010736
    2  C  1  X    0.014198  -0.055251   0.013113   0.001608  -0.013866
    3  C  1  Y   -0.033056   0.119741  -0.021867   0.055307   0.026825
    4  C  1  Z    0.070564  -0.003204  -0.052427   0.169615  -0.080057
    5  C  2  S    0.083728  -0.122729   0.008314  -0.091451   0.074548
    6  C  2  X    0.053804   0.113769  -0.085787   0.009118   0.023931
    7  C  2  Y   -0.051405  -0.085621   0.075755  -0.013821   0.031933
    8  C  2  Z    0.056325  -0.040600  -0.041662   0.022774  -0.169557
    9  C  3  S   -0.149970   0.045446  -0.216873   0.198111  -0.006436
   10  C  3  X   -0.072864  -0.125969  -0.016793  -0.103289  -0.110771
   11  C  3  Y   -0.074615   0.055744   0.098992   0.028820  -0.068691
   12  C  3  Z    0.077357  -0.017968  -0.077467  -0.004342   0.056066
[...]
   25  C  7  S   -0.041665  -0.024308  -0.044369   0.007267   0.119378
   26  C  7  X    0.084197   0.000753   0.113248  -0.017149  -0.189620
   27  C  7  Y   -0.011642  -0.035299   0.054281   0.000554   0.006373
   28  C  7  Z    0.075864   0.027956   0.059208  -0.029435  -0.072361
   29  C  8  S    0.069740   0.078559   0.089324  -0.004034  -0.017838
   30  C  8  X   -0.086473  -0.059637  -0.039963   0.023252   0.038844
   31  C  8  Y    0.017580  -0.039108  -0.004250   0.027370  -0.003262
   32  C  8  Z   -0.176495  -0.144370  -0.090593   0.025018  -0.084711
   33  C  9  S    0.012001   0.069451  -0.098941  -0.008227  -0.077005
   34  C  9  X    0.009338  -0.074634   0.126851   0.021680   0.058713
   35  C  9  Y   -0.065746   0.088118  -0.189487  -0.045555  -0.011438
   36  C  9  Z    0.028384  -0.002757  -0.024583   0.047546   0.021898
   37  C 10  S    0.032573  -0.030765   0.127458   0.092706   0.047380
   38  C 10  X   -0.024552   0.034558  -0.047106   0.006698  -0.022491
   39  C 10  Y    0.134854  -0.066139   0.213560   0.163903   0.002276
   40  C 10  Z   -0.098381   0.031491  -0.104135  -0.095982  -0.023107
   41  C 11  S   -0.012755   0.029484  -0.067481  -0.072971  -0.015896
   42  C 11  X    0.005732   0.004204  -0.059522  -0.083583  -0.002040
   43  C 11  Y   -0.079145   0.155675  -0.071617  -0.113059  -0.216966
   44  C 11  Z    0.058187  -0.018719   0.019170   0.039040   0.050658
   45  C 12  S    0.012615  -0.028833  -0.067526  -0.072777   0.016153
   46  C 12  X    0.005776   0.003754   0.059709   0.083786  -0.002596
   47  C 12  Y    0.079164  -0.155158  -0.071879  -0.112387   0.217836
   48  C 12  Z    0.058268  -0.018568  -0.019210  -0.039004   0.050844
   49  C 13  S    0.038901   0.056412   0.033201  -0.049004   0.042664
   50  C 13  X   -0.034293  -0.012906  -0.040831  -0.042419   0.000378
   51  C 13  Y   -0.012596  -0.006418   0.002014   0.036157  -0.038943
   52  C 13  Z   -0.238291  -0.141373  -0.180410   0.225061  -0.087608
   53  C 14  S   -0.031098  -0.047417  -0.036410   0.000195  -0.014004
   54  C 14  X   -0.053167  -0.003110  -0.071159  -0.045068  -0.017168
   55  C 14  Y   -0.053936  -0.021635  -0.065741  -0.039834   0.084937
   56  C 14  Z    0.218356   0.199458   0.233711  -0.096418  -0.151364
   57  C 15  S   -0.048139  -0.002261  -0.096137  -0.061421  -0.030054
   58  C 15  X    0.049393   0.024684   0.048123   0.016921   0.037547
   59  C 15  Y   -0.072142   0.069721  -0.041693  -0.110068  -0.104274
   60  C 15  Z    0.143345  -0.045474  -0.022561   0.077071   0.189519
   61  C 16  S    0.019498  -0.023636   0.037062   0.112940   0.008073
   62  C 16  X   -0.045063  -0.034032  -0.070234   0.048706  -0.029006
   63  C 16  Y    0.080295  -0.017091   0.093764   0.236952  -0.033411
   64  C 16  Z   -0.082964  -0.020331  -0.058124  -0.185944   0.061995
   65  C 17  S   -0.060718  -0.078945   0.110731  -0.082206   0.010856
   66  C 17  X    0.099112   0.056665  -0.109467   0.139094   0.012518
   67  C 17  Y   -0.043587  -0.035406   0.054546  -0.177395  -0.010942
   68  C 17  Z   -0.114384  -0.029220   0.055591  -0.224356  -0.060872
   69  C 18  S    0.081360   0.076898  -0.131405   0.017083   0.029164
   70  C 18  X   -0.210636  -0.064035   0.167752  -0.029960  -0.051453
   71  C 18  Y   -0.001487   0.006466  -0.004172   0.062267  -0.010914
   72  C 18  Z    0.226446   0.021440  -0.105974   0.012709  -0.071777
   73  C 19  S   -0.047468  -0.002554   0.062719   0.069247   0.056227
   74  C 19  X    0.083885   0.014626  -0.059697  -0.045909  -0.056109
   75  C 19  Y    0.047606  -0.030140  -0.000864  -0.101863  -0.117589
   76  C 19  Z   -0.101804   0.021799   0.017909   0.190084   0.114031
   77  C 20  S   -0.019576   0.023173   0.037272   0.113119  -0.008412
   78  C 20  X   -0.044920  -0.034308   0.069956  -0.048916  -0.029146
   79  C 20  Y   -0.080313   0.016032   0.094037   0.236948   0.032232
   80  C 20  Z   -0.083039  -0.021000   0.058300   0.185973   0.060962
   81  C 21  S    0.048006   0.002818  -0.095951  -0.061139   0.030524
   82  C 21  X    0.049322   0.024985  -0.047854  -0.016629   0.037618
   83  C 21  Y    0.072055  -0.069356  -0.041668  -0.109625   0.104783
   84  C 21  Z    0.143237  -0.045554   0.023062  -0.076019   0.189256
   85  C 22  S    0.031115   0.047640  -0.036224   0.000149   0.014076
   86  C 22  X   -0.053120  -0.003507   0.071132   0.045035  -0.017514
   87  C 22  Y    0.053877   0.022071  -0.065996  -0.040190  -0.084409
   88  C 22  Z    0.218168   0.200645  -0.233539   0.096060  -0.150772
   89  C 23  S   -0.038720  -0.056411   0.032684  -0.049103  -0.042513
   90  C 23  X   -0.034352  -0.013122   0.040809   0.042405   0.000131
   91  C 23  Y    0.012579   0.006267   0.002229   0.036390   0.038821
   92  C 23  Z   -0.237945  -0.141787   0.179514  -0.225596  -0.087127
   93  C 24  S   -0.032327   0.029872   0.127407   0.092587  -0.048192
   94  C 24  X   -0.024479   0.034406   0.047256  -0.006739  -0.022847
   95  C 24  Y   -0.134679   0.064785   0.214180   0.164143  -0.003841
   96  C 24  Z   -0.098346   0.030922   0.104412   0.095945  -0.023960
   97  C 25  S    0.011628  -0.101590   0.004285   0.010652  -0.024187
   98  C 25  X    0.010871  -0.037060  -0.003836  -0.013197  -0.079319
   99  C 25  Y   -0.209864   0.295918   0.010970  -0.056391   0.058938
  100  C 25  Z    0.046632  -0.053199   0.011398   0.028007  -0.031324
  101  C 26  S    0.012086  -0.019384  -0.023019  -0.037404  -0.102341
  102  C 26  X   -0.028633   0.025254   0.037145   0.027930   0.085393
  103  C 26  Y    0.008842  -0.064680   0.032846   0.054613   0.120126
  104  C 26  Z    0.014791   0.050570  -0.019693  -0.066204  -0.063072
  105  C 27  S    0.008429   0.130705  -0.051318   0.028389   0.023522
  106  C 27  X   -0.017903   0.159959  -0.059444   0.056362   0.007184
  107  C 27  Y    0.082022  -0.179874   0.045749  -0.102567   0.037034
  108  C 27  Z   -0.028443   0.205639  -0.111685   0.120264  -0.115582
  109  C 28  S    0.019984   0.006434  -0.008495  -0.019656   0.055811
  110  C 28  X   -0.009197  -0.085201   0.030271  -0.022264  -0.011152
  111  C 28  Y   -0.026305   0.002675  -0.046995   0.045494  -0.159338
  112  C 28  Z    0.114919  -0.064661   0.012845  -0.048876   0.142180
  113  C 29  S    0.011648  -0.115144  -0.001040  -0.001330  -0.118188
  114  C 29  X    0.047298  -0.119162  -0.024277  -0.048050  -0.120370
  115  C 29  Y   -0.087780   0.142910  -0.053273   0.055010   0.102963
  116  C 29  Z    0.028047  -0.084658   0.032579  -0.047723  -0.010948
  117  C 30  S   -0.069606  -0.079067   0.088958  -0.004335   0.017852
  118  C 30  X   -0.086442  -0.059762   0.039771  -0.023416   0.039033
  119  C 30  Y   -0.017681   0.039200  -0.004058   0.027420   0.003156
  120  C 30  Z   -0.176251  -0.144829   0.089521  -0.025876  -0.084588
  121  C 31  S    0.007283   0.064690   0.098911  -0.003720   0.133546
  122  C 31  X   -0.011964   0.102787   0.187372   0.021404   0.231959
  123  C 31  Y    0.010561  -0.072878  -0.052872  -0.033011  -0.078280
  124  C 31  Z   -0.052493  -0.033133  -0.048739   0.011722  -0.016148
  125  C 32  S    0.041750   0.024493  -0.044643   0.007102  -0.119453
  126  C 32  X    0.084290   0.001167  -0.113981   0.016638  -0.189454
  127  C 32  Y    0.011754   0.034984   0.054442   0.000637  -0.006770
  128  C 32  Z    0.075828   0.028168  -0.059345   0.029377  -0.072480
  129  C 33  S   -0.012204  -0.068928  -0.099099  -0.008191   0.077630
  130  C 33  X    0.009109  -0.073859  -0.127089  -0.021760   0.059530
  131  C 33  Y    0.065507  -0.087068  -0.190172  -0.045766   0.012527
  132  C 33  Z    0.028406  -0.002799   0.024597  -0.047523   0.021987
  133  C 34  S    0.047353   0.002168   0.062413   0.069085  -0.056655
  134  C 34  X    0.083942   0.014266   0.059485   0.045822  -0.056641
  135  C 34  Y   -0.047463   0.030250  -0.000186  -0.101399   0.117766
  136  C 34  Z   -0.101632   0.022201  -0.017216  -0.189737   0.114974
  137  C 35  S   -0.081393  -0.076308  -0.131793   0.016850  -0.028524
  138  C 35  X   -0.210752  -0.063191  -0.168041   0.029570  -0.050659
  139  C 35  Y    0.001313  -0.006583  -0.004276   0.062291   0.010755
  140  C 35  Z    0.226532   0.020866   0.105579  -0.012791  -0.072295
  141  C 36  S    0.060904   0.078586   0.111128  -0.082066  -0.011218
  142  C 36  X    0.099231   0.056319   0.109619  -0.138842   0.012393
  143  C 36  Y    0.043861   0.035457   0.054792  -0.177343   0.011251
  144  C 36  Z   -0.114554  -0.029336  -0.055772   0.224126  -0.061384

                     81         82
                   -0.0419    -0.0371
                     A          A   
    1  C  1  S   -0.087174   0.146664
    2  C  1  X    0.118385  -0.148748
    3  C  1  Y   -0.011697  -0.022273
    4  C  1  Z    0.024173   0.006493
    5  C  2  S   -0.035689  -0.038456
    6  C  2  X    0.016998   0.066512
    7  C  2  Y    0.125877  -0.025803
    8  C  2  Z    0.015439   0.017588
    9  C  3  S    0.045085  -0.029201
   10  C  3  X    0.024993  -0.004395
   11  C  3  Y   -0.134793   0.061415
   12  C  3  Z   -0.168236   0.084528
   13  C  4  S    0.047907  -0.001463
   14  C  4  X   -0.042764   0.000156
   15  C  4  Y    0.064973  -0.073545
   16  C  4  Z    0.021196  -0.020933
   17  C  5  S    0.062053   0.037962
   18  C  5  X    0.086842   0.029029
   19  C  5  Y   -0.183971  -0.067206
   20  C  5  Z   -0.061534  -0.065296
   21  C  6  S   -0.031233  -0.010047
   22  C  6  X   -0.008700  -0.007216
   23  C  6  Y    0.139293   0.028387
   24  C  6  Z    0.088843   0.001953
   25  C  7  S    0.174973  -0.192590
   26  C  7  X   -0.210206   0.164305
   27  C  7  Y    0.064737  -0.052119
   28  C  7  Z   -0.125697   0.076399
   29  C  8  S   -0.142514   0.109337
   30  C  8  X    0.148507  -0.115556
   31  C  8  Y   -0.011804   0.025515
   32  C  8  Z    0.152656  -0.051557
   33  C  9  S   -0.153209   0.182647
   34  C  9  X    0.172285  -0.171731
   35  C  9  Y   -0.111756   0.128944
   36  C  9  Z    0.011528  -0.001576
   37  C 10  S    0.054804  -0.099160
   38  C 10  X   -0.068096   0.070450
   39  C 10  Y    0.102476  -0.134085
   40  C 10  Z   -0.017458   0.059426
   41  C 11  S   -0.015025  -0.045299
   42  C 11  X   -0.026161  -0.018565
   43  C 11  Y   -0.042061  -0.079205
   44  C 11  Z    0.007452  -0.019444
   45  C 12  S   -0.014867   0.045298
   46  C 12  X    0.026194  -0.018719
   47  C 12  Y   -0.041580   0.079471
   48  C 12  Z   -0.007402  -0.019544
   49  C 13  S   -0.022151   0.070254
   50  C 13  X    0.047513   0.038159
   51  C 13  Y    0.031343  -0.042607
   52  C 13  Z    0.103022  -0.096568
   53  C 14  S    0.000125   0.024453
   54  C 14  X    0.030221   0.012896
   55  C 14  Y   -0.033175   0.097365
   56  C 14  Z    0.050452  -0.087136
   57  C 15  S    0.049568  -0.012662
   58  C 15  X   -0.056063   0.019199
   59  C 15  Y    0.012496   0.028153
   60  C 15  Z   -0.168351   0.112954
   61  C 16  S   -0.012599  -0.058928
   62  C 16  X   -0.022634  -0.037002
   63  C 16  Y    0.029563  -0.087493
   64  C 16  Z   -0.009117   0.139326
   65  C 17  S    0.068552  -0.092551
   66  C 17  X   -0.068326   0.081329
   67  C 17  Y    0.071314  -0.157629
   68  C 17  Z   -0.031097  -0.005153
   69  C 18  S    0.012260  -0.079954
   70  C 18  X   -0.010516   0.105438
   71  C 18  Y   -0.033784   0.082081
   72  C 18  Z   -0.051282  -0.038384
   73  C 19  S   -0.025879   0.097318
   74  C 19  X   -0.009720  -0.062686
   75  C 19  Y    0.028238  -0.089214
   76  C 19  Z    0.031634   0.158331
   77  C 20  S   -0.012525   0.059079
   78  C 20  X    0.022483  -0.037066
   79  C 20  Y    0.029745   0.087348
   80  C 20  Z    0.009457   0.139146
   81  C 21  S    0.049681   0.012830
   82  C 21  X    0.056186   0.019196
   83  C 21  Y    0.012657  -0.027888
   84  C 21  Z    0.168871   0.112970
   85  C 22  S    0.000102  -0.024615
   86  C 22  X   -0.030223   0.012893
   87  C 22  Y   -0.033465  -0.097302
   88  C 22  Z   -0.050889  -0.087188
   89  C 23  S   -0.022302  -0.070123
   90  C 23  X   -0.047489   0.038166
   91  C 23  Y    0.031507   0.042685
   92  C 23  Z   -0.103278  -0.096373
   93  C 24  S    0.054852   0.098824
   94  C 24  X    0.068208   0.070279
   95  C 24  Y    0.102916   0.133750
   96  C 24  Z    0.017631   0.059268
   97  C 25  S   -0.031276   0.010104
   98  C 25  X    0.008459  -0.007246
   99  C 25  Y    0.139766  -0.028554
  100  C 25  Z   -0.088995   0.002059
  101  C 26  S    0.061755  -0.038105
  102  C 26  X   -0.086511   0.029171
  103  C 26  Y   -0.183694   0.067624
  104  C 26  Z    0.061358  -0.065374
  105  C 27  S    0.048064   0.001294
  106  C 27  X    0.042872  -0.000026
  107  C 27  Y    0.065013   0.073637
  108  C 27  Z   -0.021267  -0.020968
  109  C 28  S    0.045201   0.029165
  110  C 28  X   -0.025159  -0.004324
  111  C 28  Y   -0.135247  -0.061349
  112  C 28  Z    0.168571   0.084403
  113  C 29  S   -0.035965   0.038644
  114  C 29  X   -0.017355   0.066730
  115  C 29  Y    0.126293   0.025415
  116  C 29  Z   -0.015478   0.017674
  117  C 30  S   -0.142668  -0.109190
  118  C 30  X   -0.148674  -0.115437
  119  C 30  Y   -0.011885  -0.025668
  120  C 30  Z   -0.153068  -0.051528
  121  C 31  S   -0.087051  -0.146695
  122  C 31  X   -0.117976  -0.148667
  123  C 31  Y   -0.011927   0.022339
  124  C 31  Z   -0.024230   0.006574
  125  C 32  S    0.175035   0.192396
  126  C 32  X    0.209908   0.163915
  127  C 32  Y    0.064894   0.051987
  128  C 32  Z    0.125636   0.076207
  129  C 33  S   -0.153385  -0.182297
  130  C 33  X   -0.172464  -0.171338
  131  C 33  Y   -0.112122  -0.128660
  132  C 33  Z   -0.011541  -0.001581
  133  C 34  S   -0.026101  -0.097351
  134  C 34  X    0.009461  -0.062822
  135  C 34  Y    0.028658   0.089150
  136  C 34  Z   -0.031131   0.158564
  137  C 35  S    0.012258   0.080084
  138  C 35  X    0.010593   0.105657
  139  C 35  Y   -0.033873  -0.082002
  140  C 35  Z    0.051002  -0.038549
  141  C 36  S    0.068712   0.092330
  142  C 36  X    0.068428   0.081121
  143  C 36  Y    0.071578   0.157551
  144  C 36  Z    0.031012  -0.005215

     ----------------------------------------------------------------
     PROPERTY VALUES FOR THE RHF   SELF-CONSISTENT FIELD WAVEFUNCTION
     ----------------------------------------------------------------

                    -------------
                    MOPAC CHARGES
                    -------------
         ATOM NO.   TYPE          CHARGE        ATOM  ELECTRON DENSITY
           1         C              0.0337          3.9663
           2         C             -0.0162          4.0162
           3         C             -0.0062          4.0062
           4         C              0.0214          3.9786
           5         C              0.0056          3.9944
           6         C             -0.0013          4.0013
           7         C             -0.0043          4.0043
           8         C             -0.0044          4.0044
           9         C             -0.0487          4.0487
          10         C             -0.0039          4.0039
          11         C              0.0114          3.9886
          12         C              0.0113          3.9887
          13         C             -0.0074          4.0074
          14         C              0.0243          3.9757
          15         C              0.0032          3.9968
          16         C             -0.0206          4.0206
          17         C              0.0341          3.9659
          18         C              0.0020          3.9980
          19         C             -0.0228          4.0228
          20         C             -0.0205          4.0205
          21         C              0.0031          3.9969
          22         C              0.0245          3.9755
          23         C             -0.0075          4.0075
          24         C             -0.0040          4.0040
          25         C             -0.0015          4.0015
          26         C              0.0057          3.9943
          27         C              0.0214          3.9786
          28         C             -0.0061          4.0061
          29         C             -0.0162          4.0162
          30         C             -0.0043          4.0043
          31         C              0.0336          3.9664
          32         C             -0.0042          4.0042
          33         C             -0.0488          4.0488
          34         C             -0.0228          4.0228
          35         C              0.0020          3.9980
          36         C              0.0342          3.9658

          ---------------------
          ELECTROSTATIC MOMENTS
          ---------------------

 POINT   1           X           Y           Z (ANGS)      CHARGE
                 0.000000    0.000000    0.000000        0.00 (A.U.)
         DX          DY          DZ         /D/  (DEBYE)
    -0.001328   -0.327616    0.001187    0.327621
 ...... END OF PROPERTY EVALUATION ......
 CPU     0: STEP CPU TIME=     0.02 TOTAL CPU TIME=          0.5 (      0.0 MIN)
 TOTAL WALL CLOCK TIME=          0.7 SECONDS, CPU UTILIZATION IS    74.18%
  $VIB   
          IVIB=   0 IATOM=   0 ICOORD=   0 E=     -155.5365615254
 -7.987762799E-05 1.885415240E-04 2.612341335E-05 3.624398849E-05-3.314147351E-04
 -1.734560568E-04-2.091864134E-04 5.782482175E-05-1.839562473E-05 4.476416318E-04
  2.403789420E-04 1.529583759E-04 2.137328999E-04-1.847908865E-04 7.765864573E-05
 -9.297092771E-05-1.573160143E-04 9.645364168E-05-8.496925712E-05 1.189333006E-04
  2.697149321E-04-1.811794733E-04-1.137602164E-04-3.682873774E-04-7.714357129E-05
 -5.806939689E-05 6.012738150E-05-1.287619556E-04 7.137960788E-05-1.627804991E-04
  9.530856337E-05 4.042790554E-05-1.835207874E-04-4.522578777E-05-3.584059317E-04
  1.548956980E-06-1.330872831E-05-3.003869005E-04-4.950621110E-04-1.694759804E-05
  2.620783886E-04 6.434125070E-05 3.987631065E-04-1.040994419E-04 3.148104371E-04
 -2.224265085E-04 1.089136184E-04 2.520664142E-04 6.320856863E-05-6.597902777E-05
 -1.011461359E-04-9.501913739E-05-7.092762143E-05 1.922892183E-04 2.134897826E-04
  4.741589181E-04-1.652679839E-04 1.042008351E-04 2.935292622E-04-1.136202292E-04
 -3.906668426E-04-1.966226958E-04-2.451752601E-04 7.570757880E-05 2.344863237E-04
  1.642286059E-05-8.699718733E-05-2.104781420E-04 3.503180637E-04 7.793729911E-05
 -9.486144781E-05 1.587030161E-04 2.531202930E-04-4.578778577E-05-1.138529526E-04
 -3.031646445E-04-1.961914987E-04 3.380805351E-06-2.601531312E-04 7.272247318E-05
 -2.435162542E-05 9.008327298E-05-1.688772276E-05-1.833498531E-05-1.303088094E-04
 -2.850259248E-04-2.207684561E-05 1.285715364E-05-3.394908398E-05 4.013055114E-04
  1.411551259E-04 1.898903712E-04 4.195693127E-05 2.430896696E-04 9.439668375E-05
 -2.130827990E-04 4.833211972E-05 3.613357068E-05-1.189411659E-04-8.907326262E-05
  4.616917187E-04 2.694343331E-04 1.875377373E-05-1.399353068E-04-2.830029899E-04
 -2.624479859E-05 1.940235053E-05 7.074123991E-05
 -1.328232447E-03-3.276161533E-01 1.187003072E-03
 ......END OF GEOMETRY SEARCH......
 CPU     0: STEP CPU TIME=     0.00 TOTAL CPU TIME=          0.5 (      0.0 MIN)
 TOTAL WALL CLOCK TIME=          0.7 SECONDS, CPU UTILIZATION IS    72.46%
                580000  WORDS OF DYNAMIC MEMORY USED
 EXECUTION OF GAMESS TERMINATED NORMALLY 21:09:58 27-MAY-2023    
 DDI: 263640 bytes (0.3 MB / 0 MWords) used by master data server.

 ----------------------------------------
 CPU timing information for all processes
 ========================================
 0: 0.312500 + 0.218750 = 0.531250
 1: 0.406250 + 0.078125 = 0.484375
 2: 0.296875 + 0.234375 = 0.531250
 3: 0.250000 + 0.312500 = 0.562500
 ----------------------------------------
           Disk usage (in bytes)       
 ========================================
 ----------------------------------------
            Local date and time          
 ========================================
27.05.2023 - 21:09:58,82                          
