          *******************************************************
          *                                                     *
          *          GAMESS VERSION = 30 SEP 2022 (R2)          *
          *                                                     *
          *              doi.org/10.1063/5.0005188              *
          *                                                     *
          *************** 64 BIT WINDOWS VERSION ****************

  GAMESS HAS BEEN MADE POSSIBLE WITH IMPORTANT CONTRIBUTIONS FROM
  THE FOLLOWING INDIVIDUALS (IN ALPHABETICAL ORDER):

     IVANA ADAMOVIC, CHRISTINE AIKENS, TOMOKO AKAMA,
     MELISA ALKAN, YURI ALEXEEV, YURIKO AOKI, POOJA ARORA,
     TOSHIO ASADA, ANDREY ASADCHEV, KIM K. BALDRIDGE,
     PRADIPTA BANDYOPADHYAY, TAYLOR A. BARNES, MARIA BARYSZ,
     ROB BELL, JONATHAN BENTZ, COLLEEN BERTONI,
     JERRY A. BOATZ, BRETT BODE, KURT BRORSEN, KURT R. BRORSEN,
     LAIMUTIS BYTAUTAS, CALEB CARLIN, LAURA CARRINGTON,
     GALINA CHABAN, BENOIT CHAMPAGNE, WEI CHEN, MAHITO CHIBA,
     DAN CHIPMAN, CHEOL HO CHOI, TANNER CULPITT,
     DIPAYAN DATTA, PAUL DAY, ALBERT DEFUSCO,
     NUWAN DESILVA, J. EMILIANO DEUSTUA,
     TIM DUDLEY, MICHEL DUPUIS, STEVEN T. ELBERT,
     DMITRI FEDOROV, KATHERINE FERRERAS, MICHAEL FILATOV,
     ALEX FINDLATER,GRAHAM FLETCHER, MARK FREITAG,
     CHRISTIAN FRIEDL, DAVID GARMER, 
     IGOR S. GERASIMOV, KURT GLAESEMANN,
     MARK S. GORDON, JEFFREY GOUR, FENG LONG GU,
     EMILIE B. GUIDEZ, ANASTASIA GUNINA, SHARON HAMMES-SCHIFFER,
     MASATAKE HARUTA, KIMIHIKO HIRAO, YASUHIRO IKABATA,
     TZVETELIN IORDANOV, STEPHAN IRLE, KAZUYA ISHIMURA,
     JOE IVANIC, FRANK JENSEN, JAN H. JENSEN, VISVALDAS KAIRYS,
     MUNEAKI KAMIYA, MICHIO KATOUDA, NAOAKI KAWAKAMI, DAN KEMP,
     BERNARD KIRTMAN, KAZUO KITAURA, MARIUSZ KLOBUKOWSKI,
     MASATO KOBAYASHI, KONSTANTIN KOMAROV, PRAKASHAN KORAMBATH,
     JACEK KORCHOWIEC, SHIRO KOSEKI, KAROL KOWALSKI,
     JIMMY KROMANN, STANISLAW KUCHARSKI, HENRY KURTZ,
     SAROM SOK LEANG, SEUNGHOON LEE, HUI LI, SHUHUA LI, WEI LI,
     JESSE LUTZ, ALEKSANDR O. LYKHIN, MARCIN MAKOWSKI,
     JOANI MATO, NIKITA MATSUNAGA, BENEDETTA MENNUCCI,
     GRANT MERRILL, NORIYUKI MINEZAWA, VLADIMIR MIRONOV,
     EISAKU MIYOSHI, JOHN A. MONTGOMERY JR., HIROTOSHI MORI,
     JONATHAN MULLIN, MONIKA MUSIAL, SHIGERU NAGASE,
     TAKESHI NAGATA, HIROMI NAKAI, TAKAHITO NAKAJIMA,
     YUYA NAKAJIMA, HARUYUKI NAKANO, HIROYA NAKATA, SEAN NEDD,
     HEATHER NETZLOFF, KIET A. NGUYEN, YOSHIO NISHIMOTO,
     BOSILJKA NJEGIC, RYAN OLSON, MIKE PAK, ROBERTO PEVERATI,
     BUU PHAM, PIOTR PIECUCH, ANNA POMOGAEVA, DAVID POOLE,
     SPENCER PRUITT, OLIVIER QUINET, LUKE ROSKOP,
     KLAUS RUEDENBERG, ANDREW SAND, TOSAPORN SATTASATHUCHANA,
     NOZOMI SAWADA, MICHAEL W. SCHMIDT, PATRICK E. SCHNEIDER,
     JUNJI SEINO, PRACHI SHARMA, JUN SHEN, JIM SHOEMAKER,
     YINAN SHU, DEJUN SI, JONATHAN SKONE, LYUDMILA SLIPCHENKO,
     TONY SMITH, JIE SONG, MARK SPACKMAN, CASPER STEINMANN,
     WALT STEVENS, PEIFENG SU, SHUJUN SU, CHET SWALINA,
     CHINAMI TAKASHIMA, TETSUYA TAKETSUGU, ZHEN TAO,
     NANDUN THELLAMUREGE, SEIKEN TOKURA, JACOPO TOMASI,
     TSUGUKI TOUMA, TAKAO TSUNEDA, HIROAKI UMEDA,
     JORGE LUIS GALVEZ VALLEJO, YALI WANG, SIMON WEBB,
     AARON WEST, THERESA L. WINDUS, MARTA WLOCH,
     PENG XU, KIYOSHI YAGI, SUSUMU YANAGISAWA, YANG YANG,
     SOOHAENG YOO, TAKESHI YOSHIKAWA, FEDERICO ZAHARIEV,
     TOBY ZENG

  WHO ARE SUPPORTED BY THEIR INSTITUTION/UNIVERSITY/COMPANY/GROUP
  (IN ALPHABETICAL ORDER):

     EP ANALYTICS,
     FACULTES UNIVERSITAIRES NOTRE-DAME DE LA PAIX,
     INSTITUTE FOR MOLECULAR SCIENCE, IOWA STATE UNIVERSITY,
     JACKSON STATE UNIVERSITY, JOHANNES KEPLER UNIVERSITY LINZ,
     KYUNGPOOK NATIONAL UNIVERSITY
     KYUSHU UNIVERSITY, MICHIGAN STATE UNIVERSITY,
     MIE UNIVERSITY, THE MOLECULAR SCIENCES SOFTWARE INSTITUTE,
     MOSCOW STATE UNIVERSITY,
     N. COPERNICUS UNIVERSITY, NAGOYA UNIVERSITY,
     NANJING UNIVERSITY, NAT. INST. OF ADVANCED INDUSTRIAL
     SCIENCE AND TECHNOLOGY, NATIONAL INST. OF STANDARDS AND
     TECHNOLOGY, NESMEYANOV INSTITUTE OF ORGANOELEMENT COMPOUNDS
     OF RUSSIAN ACADEMY OF SCIENCES, OSAKA PREFECTURE UNIVERSITY,
     PENNSYLVANIA STATE UNIVERSITY, TOKYO INSTITUTE OF TECHNOLOGY,
     UNIVERSITY OF AARHUS, UNIVERSITY OF ALBERTA,
     UNIVERSITY OF CALIFORNIA AT SANTA BARBARA,
     UNIVERSITY OF COPENHAGEN, UNIVERSITY OF IOWA,
     UNIVERSITY OF MEMPHIS, UNIVERSITY OF MINNESOTA,
     UNIVERSITY OF NEBRASKA, UNIVERSITY OF NEW ENGLAND,
     UNIVERSITY OF NOTRE DAME, UNIVERSITY OF PISA,
     UNIVERSITY OF SILESIA, UNIVERSITY OF TOKYO,
     UNIVERSITY OF ZURICH, WASEDA UNIVERSITY,
     YALE UNIVERSITY

  GAMESS SOFTWARE MANAGEMENT TEAM FOR THIS RELEASE:
     MARK S. GORDON (TEAM LEAD),
     BRETT BODE (SENIOR ADVISOR),
     GIUSEPPE BARCA,
     COLLEEN BERTONI,
     KRISTOPHER KEIPERT (ADVISOR),
     SAROM S. LEANG (DEVELOPMENT LEAD),
     BUU PHAM,
     JACKSON HAYES (WEBSITE ADMINISTRATOR),
     PENG XU


 PARALLEL VERSION RUNNING ON        2 PROCESSORS IN        2 NODES.

 EXECUTION OF GAMESS BEGUN 21:10:08 27-MAY-2023    

            ECHO OF THE FIRST FEW INPUT CARDS -
 INPUT CARD>! (Energy/Geometry) PM3                                                         
 INPUT CARD> $CONTRL                                                                        
 INPUT CARD>COORD=UNIQUE                                                                    
 INPUT CARD>ICHARG=0                                                                        
 INPUT CARD>MAXIT=200                                                                       
 INPUT CARD>MULT=1                                                                          
 INPUT CARD>RUNTYP=OPTIMIZE                                                                 
 INPUT CARD>SCFTYP=RHF                                                                      
 INPUT CARD>UNITS=ANGS                                                                      
 INPUT CARD>! DFTTYP=PBE                                                                    
 INPUT CARD> $END                                                                           
 INPUT CARD> $DFT                                                                           
 INPUT CARD>METHOD=GRID                                                                     
 INPUT CARD> $END                                                                           
 INPUT CARD> $BASIS                                                                         
 INPUT CARD>! EXTFIL=.T.                                                                    
 INPUT CARD>! GBASIS=GEGSSBAS                                                               
 INPUT CARD>! NGAUSS=6                                                                      
 INPUT CARD>GBASIS=PM3                                                                      
 INPUT CARD>! NDFUNC=1                                                                      
 INPUT CARD>! NPFUNC=1                                                                      
 INPUT CARD> $END                                                                           
 INPUT CARD> $SCF                                                                           
 INPUT CARD>DAMP=.F.                                                                        
 INPUT CARD>DEM=.F.                                                                         
 INPUT CARD>DIIS=.F.                                                                        
 INPUT CARD>DIRSCF=.T.                                                                      
 INPUT CARD>EXTRAP=.T.                                                                      
 INPUT CARD>RSTRCT=.F.                                                                      
 INPUT CARD>SHIFT=.F.                                                                       
 INPUT CARD>SOSCF=.T.                                                                       
 INPUT CARD> $END                                                                           
 INPUT CARD> $STATPT                                                                        
 INPUT CARD>METHOD=QA                                                                       
 INPUT CARD>NSTEP=100                                                                       
 INPUT CARD>OPTTOL=0.001                                                                    
 INPUT CARD> $END                                                                           
 INPUT CARD> $GUESS                                                                         
 INPUT CARD>GUESS=HUCKEL                                                                    
 INPUT CARD> $END                                                                           
 INPUT CARD> $SYSTEM                                                                        
 INPUT CARD>MWORDS=10                                                                       
 INPUT CARD> $END                                                                           
 INPUT CARD> $DATA                                                                          
 INPUT CARD>C36 FULLERENE                                                                   
 INPUT CARD>C1                                                                              
 INPUT CARD>C	6.0	2.5256	-1.453	-0.6511                                                     
 INPUT CARD>C	6.0	2.4774	-0.171	-1.1077                                                     
 INPUT CARD>C	6.0	2.5361	-1.4799	0.685                                                      
 INPUT CARD>C	6.0	1.877	1.8803	0.0084                                                       
     10000000 WORDS OF MEMORY AVAILABLE

     BASIS OPTIONS
     -------------
     GBASIS=PM3          IGAUSS=       0      POLAR=NONE    
     NDFUNC=       0     NFFUNC=       0     DIFFSP=       F
     NPFUNC=       0      DIFFS=       F     BASNAM=        


     RUN TITLE
     ---------
 C36 FULLERENE                                                                   

 THE POINT GROUP OF THE MOLECULE IS C1      
 THE ORDER OF THE PRINCIPAL AXIS IS     0

 ATOM      ATOMIC                      COORDINATES (BOHR)
           CHARGE         X                   Y                   Z
 C           6.0     4.7726919546       -2.7457718602       -1.2304005906
 C           6.0     4.6816071620       -0.3231431439       -2.0932494766
 C           6.0     4.7925340775       -2.7966054892        1.2944623016
 C           6.0     3.5470156790        3.5532517747        0.0158736983
 C           6.0     4.8569737336        1.2882262058        0.0132280819
 C           6.0     4.7222362707       -0.3446860202        2.0996745450
 C           6.0     2.0531872857        4.2161676512       -2.0907928328
 C           6.0     2.6544980950       -3.9540626567        2.0985407094
 C           6.0     1.3178949038       -4.9229251706        0.0013228082
 C           6.0    -1.2946512742       -4.9068624997        0.0187082873
 C           6.0     1.3248868900       -2.3018752256        3.6760839639
 C           6.0    -1.3118477807       -2.3266306361        3.6392343072
 C           6.0    -2.6824660396       -3.9655899852        2.0830449563
 C           6.0     1.3479415470        2.2971509107        3.6664463614
 C           6.0     2.6584665195        0.0147398627        3.7023511551
 C           6.0    -2.6544980950       -0.0039684246        3.6267621156
 C           6.0    -1.3260207256        2.2805213220        3.6284628690
 C           6.0     2.0603682444        4.3013942933        2.0915487232
 C           6.0    -2.5877907676       -3.8888671101       -2.0726514633
 C           6.0    -4.7265826405       -2.7537087093       -1.2099915499
 C           6.0    -4.8308955150       -2.7777082294        1.3182728490
 C           6.0    -1.2853916168       -2.3086782392       -3.7320198532
 C           6.0     1.3418944239       -2.3143474172       -3.7331536887
 C           6.0     2.6393802871       -3.9011503291       -2.0836118741
 C           6.0    -2.6469391910       -0.0005669178       -3.6883671828
 C           6.0     2.6590334373        0.0187082873       -3.7512950582
 C           6.0     1.3226192188        2.2820331028       -3.7339095791
 C           6.0    -1.3437841499        2.2871353629       -3.6906348540
 C           6.0    -4.6814181894       -0.3204975275       -2.0397702311
 C           6.0    -4.9331296909        1.3417054513        0.0126611641
 C           6.0    -3.5872668425        3.5821645823        0.0230546571
 C           6.0    -2.0435496831        4.2403561438       -2.0524313953
 C           6.0    -4.7849751735       -0.3223872535        2.0841787919
 C           6.0    -2.0552659842        4.2972368961        2.0769978331
 C           6.0     0.0075589040        5.6259032380        1.2766988773
 C           6.0     0.0107714381        5.5574951573       -1.2423058643

          INTERNUCLEAR DISTANCES (ANGS.)
          ------------------------------

                1 C          2 C          3 C          4 C          5 C     

   1 C       0.0000000    1.3617382 *  1.3364120 *  3.4592645    2.2342849 *
   2 C       1.3617382 *  0.0000000    2.2204590 *  2.4112219 *  1.4065082 *
   3 C       1.3364120 *  2.2204590 *  0.0000000    3.4904361    2.2656922 *
   4 C       3.4592645    2.4112219 *  3.4904361    0.0000000    1.3846191 *
   5 C       2.2342849 *  1.4065082 *  2.2656922 *  1.3846191 *  0.0000000  
   6 C       2.1726680 *  2.2189334 *  1.3661813 *  2.4202145 *  1.4038480 *
   7 C       3.9813188    2.7757321 *  4.3682920    1.4109323 *  2.4169538 *
   8 C       2.1836858 *  3.1245599    1.3550913 *  4.1497032    3.2049545  
   9 C       2.2570983 *  3.2127548    2.2616718 *  4.6379229    3.7829187  
  10 C       3.4717915    4.1393202    3.4754724    5.1581966    4.6199824  
  11 C       3.1820231    3.6840832    2.2414550 *  3.8385420    3.2954183  
  12 C       4.1299783    4.5149964    3.4693334    4.4686603    4.2423210  
  13 C       4.3651914    4.8770058    4.0253666    5.2815129    4.9846665  
  14 C       4.1377159    3.7847593    3.4876707    2.3511433 *  2.7332012 *
  15 C       3.1936368    3.2533105    2.2610076 *  2.7446247 *  2.3703851 *
  16 C       4.9151613    4.9255813    4.3860058    4.2384126    4.4636220  
  17 C       4.9092841    4.6013675    4.3848806    3.2799227    3.8263574  
  18 C       4.3654589    3.5800621    4.0467938    1.4078765 *  2.4376411 *
  19 C       3.9668095    4.2846681    4.3314923    5.2220685    4.9238431  
  20 C       5.0268134    5.1632578    5.2087740    5.5433161    5.5419300  
  21 C       5.2579465    5.5032165    5.0925254    5.5994529    5.6025297  
  22 C       3.4760753    3.4389597    4.1816649    4.4827620    4.2562847  
  23 C       2.2588042 *  2.2330942 *  3.2369219    3.8650407    3.3203372  
  24 C       1.3609105 *  2.1801151 *  2.1989512 *  4.1262171    3.1858091  
  25 C       4.3838327    3.9725688    4.9639022    4.2570363    4.4799630  
  26 C       2.2739118 *  1.3957427 *  3.2593832    2.7736698 *  2.4026192 *
  27 C       3.4881324    2.4111855 *  4.2041260    2.4032345 *  2.7760557 *
  28 C       4.3891158    3.5761787    4.9739851    3.3157581    3.8584903  
  29 C       5.1826214    4.9547810    5.4739541    4.9340984    5.2328035  
  30 C       5.6116658    5.2824970    5.6341143    4.6375922    5.1807773  
  31 C       5.5878422    4.9670678    5.6134271    3.7753329    4.6304506  
  32 C       5.1833140    4.3008448    5.4854159    3.1752584    4.1194076  
  33 C       5.5046703    5.4755678    5.2512435    4.9844041    5.2878046  
  34 C       5.4780419    4.8535777    5.2339704    3.1833126    4.1361338  
  35 C       5.2672939    4.3827389    5.1260577    2.2707389 *  3.5073166  
  36 C       5.0652041    3.9994990    5.2676783    2.2516495 *  3.4816766  

                6 C          7 C          8 C          9 C         10 C     

   1 C       2.1726680 *  3.9813188    2.1836858 *  2.2570983 *  3.4717915  
   2 C       2.2189334 *  2.7757321 *  3.1245599    3.2127548    4.1393202  
   3 C       1.3661813 *  4.3682920    1.3550913 *  2.2616718 *  3.4754724  
   4 C       2.4202145 *  1.4109323 *  4.1497032    4.6379229    5.1581966  
   5 C       1.4038480 *  2.4169538 *  3.2049545    3.7829187    4.6199824  
   6 C       0.0000000    3.5689161    2.2012210 *  3.2168099    4.1447387  
   7 C       3.5689161    0.0000000    4.8691425    4.9765349    5.2622599  
   8 C       2.2012210 *  4.8691425    0.0000000    1.4123706 *  2.4151195 *
   9 C       3.2168099    4.9765349    1.4123706 *  0.0000000    1.3825567 *
  10 C       4.1447387    5.2622599    2.4151195 *  1.3825567 *  0.0000000  
  11 C       2.2362131 *  4.6215135    1.3986939 *  2.3885669 *  2.7509245 *
  12 C       3.4582662    4.9348405    2.4107594 *  2.7441140 *  2.3526735 *
  13 C       4.3618087    5.4684393    2.8242185 *  2.4395556 *  1.4074035 *
  14 C       2.4145762 *  3.2330002    3.4798420    4.2848176    4.4960482  
  15 C       1.3957550 *  3.8004682    2.2652011 *  3.3415890    3.8676499  
  16 C       3.9904419    4.5108220    3.5938946    3.8568220    3.3007092  
  17 C       3.5816474    3.6614959    3.9971357    4.4913426    4.2561710  
  18 C       2.8335290 *  2.2136627 *  4.3799003    5.0204499    5.3008881  
  19 C       4.8328116    4.9423737    3.5452778    2.4032470 *  1.4082788 *
  20 C       5.4491758    5.1664686    4.3272202    3.4582651    2.2403597 *
  21 C       5.2330389    5.4975028    4.0309187    3.5159015    2.2900105 *
  22 C       4.5508480    3.9745879    3.8242149    2.7775120 *  2.4144989 *
  23 C       3.7166240    3.5832339    3.2800562    2.4106082 *  2.7875627 *
  24 C       3.1076095    4.3066877    2.2132916 *  1.4137354 *  2.4196662 *
  25 C       4.9619953    3.4467392    4.6502508    3.8728882    3.3318349  
  26 C       3.2886868    2.4101094 *  3.7419795    3.3593602    3.8924501  
  27 C       3.8338062    1.3975128 *  4.5730305    4.2946053    4.5092754  
  28 C       4.6510668    2.2338599 *  4.9768935    4.5119944    4.2832394  
  29 C       5.4370047    4.2970641    4.8541473    4.1445140    3.2076291  
  30 C       5.3030223    4.1497645    5.0193278    4.6831748    3.8263271  
  31 C       4.9860839    3.2051298    5.2934125    5.1955838    4.6531409  
  32 C       4.8510996    2.1680328 *  5.4597841    5.2780740    4.9788262  
  33 C       5.0310205    4.8727236    4.3808409    4.1918141    3.2390638  
  34 C       4.3470711    3.0972216    5.0276374    5.3102094    5.0071057  
  35 C       4.0492748    2.2144630 *  5.2773979    5.6654435    5.6554529  
  36 C       4.3701992    1.3687752 *  5.5151410    5.6275803    5.6201779  

               11 C         12 C         13 C         14 C         15 C     

   1 C       3.1820231    4.1299783    4.3651914    4.1377159    3.1936368  
   2 C       3.6840832    4.5149964    4.8770058    3.7847593    3.2533105  
   3 C       2.2414550 *  3.4693334    4.0253666    3.4876707    2.2610076 *
   4 C       3.8385420    4.4686603    5.2815129    2.3511433 *  2.7446247 *
   5 C       3.2954183    4.2423210    4.9846665    2.7332012 *  2.3703851 *
   6 C       2.2362131 *  3.4582662    4.3618087    2.4145762 *  1.3957550 *
   7 C       4.6215135    4.9348405    5.4684393    3.2330002    3.8004682  
   8 C       1.3986939 *  2.4107594 *  2.8242185 *  3.4798420    2.2652011 *
   9 C       2.3885669 *  2.7441140 *  2.4395556 *  4.2848176    3.3415890  
  10 C       2.7509245 *  2.3526735 *  1.4074035 *  4.4960482    3.8676499  
  11 C       0.0000000    1.3954977 *  2.4459553 *  2.4337359 *  1.4145800 *
  12 C       1.3954977 *  0.0000000    1.3987214 *  2.8227812 *  2.4393519 *
  13 C       2.4459553 *  1.3987214 *  0.0000000    4.0291651    3.6274990  
  14 C       2.4337359 *  2.8227812 *  4.0291651    0.0000000    1.3928690 *
  15 C       1.4145800 *  2.4393519 *  3.6274990    1.3928690 *  0.0000000  
  16 C       2.4318164 *  1.4196974 *  2.2499861 *  2.4431861 *  2.8118020 *
  17 C       2.8015394 *  2.4380182 *  3.4798048    1.4151701 *  2.4258817 *
  18 C       3.6145112    4.0195841    5.0435222    1.4005559 *  2.4438487 *
  19 C       3.7744677    3.2055325    2.2000453 *  4.9271503    4.6166588  
  20 C       4.1227687    3.1466163    2.1489521 *  4.9128251    4.9169187  
  21 C       3.4973511    2.2434887 *  1.3606843 *  4.4098643    4.4138629  
  22 C       4.1564373    3.9007367    3.2839766    4.8177050    4.6199981  
  23 C       3.9208159    4.1463529    3.8433807    4.6138683    4.1816637  
  24 C       3.2387926    3.7732336    3.5768323    4.5259328    3.6971251  
  25 C       4.5921660    4.1291693    3.7054451    4.5929373    4.8143580  
  26 C       4.1778540    4.6098731    4.6869027    4.1644989    3.9443006  
  27 C       4.6108385    4.8077566    4.9897363    3.9161311    4.1742352  
  28 C       4.8050160    4.5832627    4.5590400    4.1455940    4.6083419  
  29 C       4.5111405    3.6520771    3.0982916    4.6061580    4.9346523  
  30 C       4.2944655    3.3351773    3.2413720    3.8783631    4.5215086  
  31 C       4.4932042    3.8585749    4.1677815    3.3166306    4.2753110  
  32 C       4.9347884    4.6149524    4.8744070    3.6656296    4.5238407  
  33 C       3.5014963    2.2759423 *  2.2259105 *  3.6270157    4.0348494  
  34 C       4.0137594    3.6227922    4.3850797    2.2518660 *  3.4781411  
  35 C       4.4382192    4.4452528    5.2886804    2.2814912 *  3.5259352  
  36 C       4.9552911    4.9567329    5.5247888    3.1976372    4.1728590  

               16 C         17 C         18 C         19 C         20 C     

   1 C       4.9151613    4.9092841    4.3654589    3.9668095    5.0268134  
   2 C       4.9255813    4.6013675    3.5800621    4.2846681    5.1632578  
   3 C       4.3860058    4.3848806    4.0467938    4.3314923    5.2087740  
   4 C       4.2384126    3.2799227    1.4078765 *  5.2220685    5.5433161  
   5 C       4.4636220    3.8263574    2.4376411 *  4.9238431    5.5419300  
   6 C       3.9904419    3.5816474    2.8335290 *  4.8328116    5.4491758  
   7 C       4.5108220    3.6614959    2.2136627 *  4.9423737    5.1664686  
   8 C       3.5938946    3.9971357    4.3799003    3.5452778    4.3272202  
   9 C       3.8568220    4.4913426    5.0204499    2.4032470 *  3.4582651  
  10 C       3.3007092    4.2561710    5.3008881    1.4082788 *  2.2403597 *
  11 C       2.4318164 *  2.8015394 *  3.6145112    3.7744677    4.1227687  
  12 C       1.4196974 *  2.4380182 *  4.0195841    3.2055325    3.1466163  
  13 C       2.2499861 *  3.4798048    5.0435222    2.2000453 *  2.1489521 *
  14 C       2.4431861 *  1.4151701 *  1.4005559 *  4.9271503    4.9128251  
  15 C       2.8118020 *  2.4258817 *  2.4438487 *  4.6166588    4.9169187  
  16 C       0.0000000    1.3984452 *  3.4750064    3.6501802    3.1417620  
  17 C       1.3984452 *  0.0000000    2.2397181 *  4.4950834    4.1098351  
  18 C       3.4750064    2.2397181 *  0.0000000    5.4488898    5.4671296  
  19 C       3.6501802    4.4950834    5.4488898    0.0000000    1.3602220 *
  20 C       3.1417620    4.1098351    5.4671296    1.3602220 *  0.0000000  
  21 C       2.2300575 *  3.4783820    5.2439614    2.2303776 *  1.3390985 *
  22 C       4.1444347    4.5901089    4.9866672    1.3947353 *  2.2699468 *
  23 C       4.5973708    4.8042763    4.6798960    2.4063782 *  3.4855793  
  24 C       4.6078410    4.9234893    4.8801780    2.7661137 *  3.9719060  
  25 C       3.8710025    4.1154952    4.5544009    2.2283901 *  2.2480414 *
  26 C       4.8114366    4.5967591    3.8465990    3.5740490    4.3858498  
  27 C       4.5896099    4.1404467    3.2859333    3.9646323    4.3740173  
  28 C       4.1164217    3.8731130    3.7072309    3.4420297    3.4703308  
  29 C       3.1890640    3.7475636    4.8465635    2.1893885 *  1.3606226 *
  30 C       2.3703789 *  2.7479860 *  4.1664281    3.2278959    2.2643567 *
  31 C       2.7352432 *  2.3550752 *  3.2054228    4.1400216    3.4685029  
  32 C       3.7657492    3.2026531    3.0864437    4.3114431    3.9890739  
  33 C       1.4020587 *  2.4321617 *  4.3713416    3.1228917    2.1668042 *
  34 C       2.4400303 *  1.4006697 *  2.1779147 *  4.8648480    4.3526579  
  35 C       3.5223017    2.2761272 *  1.3628066 *  5.5117016    5.2602886  
  36 C       4.1580458    3.1860671    2.1749908 *  5.2030735    5.0624227  

               21 C         22 C         23 C         24 C         25 C     

   1 C       5.2579465    3.4760753    2.2588042 *  1.3609105 *  4.3838327  
   2 C       5.5032165    3.4389597    2.2330942 *  2.1801151 *  3.9725688  
   3 C       5.0925254    4.1816649    3.2369219    2.1989512 *  4.9639022  
   4 C       5.5994529    4.4827620    3.8650407    4.1262171    4.2570363  
   5 C       5.6025297    4.2562847    3.3203372    3.1858091    4.4799630  
   6 C       5.2330389    4.5508480    3.7166240    3.1076095    4.9619953  
   7 C       5.4975028    3.9745879    3.5832339    4.3066877    3.4467392  
   8 C       4.0309187    3.8242149    3.2800562    2.2132916 *  4.6502508  
   9 C       3.5159015    2.7775120 *  2.4106082 *  1.4137354 *  3.8728882  
  10 C       2.2900105 *  2.4144989 *  2.7875627 *  2.4196662 *  3.3318349  
  11 C       3.4973511    4.1564373    3.9208159    3.2387926    4.5921660  
  12 C       2.2434887 *  3.9007367    4.1463529    3.7732336    4.1291693  
  13 C       1.3606843 *  3.2839766    3.8433807    3.5768323    3.7054451  
  14 C       4.4098643    4.8177050    4.6138683    4.5259328    4.5929373  
  15 C       4.4138629    4.6199981    4.1816637    3.6971251    4.8143580  
  16 C       2.2300575 *  4.1444347    4.5973708    4.6078410    3.8710025  
  17 C       3.4783820    4.5901089    4.8042763    4.9234893    4.1154952  
  18 C       5.2439614    4.9866672    4.6798960    4.8801780    4.5544009  
  19 C       2.2303776 *  1.3947353 *  2.4063782 *  2.7661137 *  2.2283901 *
  20 C       1.3390985 *  2.2699468 *  3.4855793    3.9719060    2.2480414 *
  21 C       0.0000000    3.2747498    4.2279556    4.3841932    3.2426358  
  22 C       3.2747498    0.0000000    1.3903034 *  2.4051121 *  1.4182637 *
  23 C       4.2279556    1.3903034 *  0.0000000    1.3922895 *  2.4403266 *
  24 C       4.3841932    2.4051121 *  1.3922895 *  0.0000000    3.5787004  
  25 C       3.2426358    1.4182637 *  2.4403266 *  3.5787004    0.0000000  
  26 C       5.0095928    2.4235849 *  1.4177935 *  2.2542482 *  2.8080160 *
  27 C       4.9920034    2.7939534 *  2.4323214 *  3.4574799    2.4232465 *
  28 C       4.1969375    2.4322949 *  2.8194930 *  3.9861838    1.3932344 *
  29 C       2.2033533 *  2.2668046 *  3.4750180    4.3126188    1.3959985 *
  30 C       2.2874076 *  3.3740571    4.3241838    4.9985492    2.4091211 *
  31 C       3.4970643    3.8922864    4.5266957    5.2708068    2.7747682 *
  32 C       4.3760166    3.6001820    4.0039594    4.9701812    2.4264836 *
  33 C       1.3612638 *  3.7426191    4.5934229    4.8873488    3.2619412  
  34 C       4.0417030    4.6728331    4.9925737    5.4626865    3.8181753  
  35 C       5.1314658    5.0123050    5.0181702    5.5243399    4.2120451  
  36 C       5.2778346    4.4196724    4.4255836    5.2140303    3.5077186  

               26 C         27 C         28 C         29 C         30 C     

   1 C       2.2739118 *  3.4881324    4.3891158    5.1826214    5.6116658  
   2 C       1.3957427 *  2.4111855 *  3.5761787    4.9547810    5.2824970  
   3 C       3.2593832    4.2041260    4.9739851    5.4739541    5.6341143  
   4 C       2.7736698 *  2.4032345 *  3.3157581    4.9340984    4.6375922  
   5 C       2.4026192 *  2.7760557 *  3.8584903    5.2328035    5.1807773  
   6 C       3.2886868    3.8338062    4.6510668    5.4370047    5.3030223  
   7 C       2.4101094 *  1.3975128 *  2.2338599 *  4.2970641    4.1497645  
   8 C       3.7419795    4.5730305    4.9768935    4.8541473    5.0193278  
   9 C       3.3593602    4.2946053    4.5119944    4.1445140    4.6831748  
  10 C       3.8924501    4.5092754    4.2832394    3.2076291    3.8263271  
  11 C       4.1778540    4.6108385    4.8050160    4.5111405    4.2944655  
  12 C       4.6098731    4.8077566    4.5832627    3.6520771    3.3351773  
  13 C       4.6869027    4.9897363    4.5590400    3.0982916    3.2413720  
  14 C       4.1644989    3.9161311    4.1455940    4.6061580    3.8783631  
  15 C       3.9443006    4.1742352    4.6083419    4.9346523    4.5215086  
  16 C       4.8114366    4.5896099    4.1164217    3.1890640    2.3703789 *
  17 C       4.5967591    4.1404467    3.8731130    3.7475636    2.7479860 *
  18 C       3.8465990    3.2859333    3.7072309    4.8465635    4.1664281  
  19 C       3.5740490    3.9646323    3.4420297    2.1893885 *  3.2278959  
  20 C       4.3858498    4.3740173    3.4703308    1.3606226 *  2.2643567 *
  21 C       5.0095928    4.9920034    4.1969375    2.2033533 *  2.2874076 *
  22 C       2.4235849 *  2.7939534 *  2.4322949 *  2.2668046 *  3.3740571  
  23 C       1.4177935 *  2.4323214 *  2.8194930 *  3.4750180    4.3241838  
  24 C       2.2542482 *  3.4574799    3.9861838    4.3126188    4.9985492  
  25 C       2.8080160 *  2.4232465 *  1.3932344 *  1.3959985 *  2.4091211 *
  26 C       0.0000000    1.3909356 *  2.4349049 *  3.9926277    4.5385589  
  27 C       1.3909356 *  0.0000000    1.4111884 *  3.5770088    3.8906371  
  28 C       2.4349049 *  1.4111884 *  0.0000000    2.4055692 *  2.7746071 *
  29 C       3.9926277    3.5770088    2.4055692 *  0.0000000    1.4039415 *
  30 C       4.5385589    3.8906371    2.7746071 *  1.4039415 *  0.0000000  
  31 C       4.2977600    3.3431316    2.3960574 *  2.4066330 *  1.3830786 *
  32 C       3.4628874    2.2447030 *  1.3989162 *  2.7881112 *  2.4259447 *
  33 C       5.0085548    4.6716452    3.8159469    2.1829882 *  1.4082817 *
  34 C       4.5674902    3.7132183    3.2540013    3.5564462    2.4410363 *
  35 C       4.2251970    3.2627993    3.2469198    4.3747681    3.5245964  
  36 C       3.5096254    2.2857569 *  2.2775772 *  4.0023222    3.5017776  

               31 C         32 C         33 C         34 C         35 C     

   1 C       5.5878422    5.1833140    5.5046703    5.4780419    5.2672939  
   2 C       4.9670678    4.3008448    5.4755678    4.8535777    4.3827389  
   3 C       5.6134271    5.4854159    5.2512435    5.2339704    5.1260577  
   4 C       3.7753329    3.1752584    4.9844041    3.1833126    2.2707389 *
   5 C       4.6304506    4.1194076    5.2878046    4.1361338    3.5073166  
   6 C       4.9860839    4.8510996    5.0310205    4.3470711    4.0492748  
   7 C       3.2051298    2.1680328 *  4.8727236    3.0972216    2.2144630 *
   8 C       5.2934125    5.4597841    4.3808409    5.0276374    5.2773979  
   9 C       5.1955838    5.2780740    4.1918141    5.3102094    5.6654435  
  10 C       4.6531409    4.9788262    3.2390638    5.0071057    5.6554529  
  11 C       4.4932042    4.9347884    3.5014963    4.0137594    4.4382192  
  12 C       3.8585749    4.6149524    2.2759423 *  3.6227922    4.4452528  
  13 C       4.1677815    4.8744070    2.2259105 *  4.3850797    5.2886804  
  14 C       3.3166306    3.6656296    3.6270157    2.2518660 *  2.2814912 *
  15 C       4.2753110    4.5238407    4.0348494    3.4781411    3.5259352  
  16 C       2.7352432 *  3.7657492    1.4020587 *  2.4400303 *  3.5223017  
  17 C       2.3550752 *  3.2026531    2.4321617 *  1.4006697 *  2.2761272 *
  18 C       3.2054228    3.0864437    4.3713416    2.1779147 *  1.3628066 *
  19 C       4.1400216    4.3114431    3.1228917    4.8648480    5.5117016  
  20 C       3.4685029    3.9890739    2.1668042 *  4.3526579    5.2602886  
  21 C       3.4970643    4.3760166    1.3612638 *  4.0417030    5.1314658  
  22 C       3.8922864    3.6001820    3.7426191    4.6728331    5.0123050  
  23 C       4.5266957    4.0039594    4.5934229    4.9925737    5.0181702  
  24 C       5.2708068    4.9701812    4.8873488    5.4626865    5.5243399  
  25 C       2.7747682 *  2.4264836 *  3.2619412    3.8181753    4.2120451  
  26 C       4.2977600    3.4628874    5.0085548    4.5674902    4.2251970  
  27 C       3.3431316    2.2447030 *  4.6716452    3.7132183    3.2627993  
  28 C       2.3960574 *  1.3989162 *  3.8159469    3.2540013    3.2469198  
  29 C       2.4066330 *  2.7881112 *  2.1829882 *  3.5564462    4.3747681  
  30 C       1.3830786 *  2.4259447 *  1.4082817 *  2.4410363 *  3.5245964  
  31 C       0.0000000    1.4124098 *  2.4208493 *  1.4077545 *  2.2865885 *
  32 C       1.4124098 *  0.0000000    3.5673606    2.1854161 *  2.1952818 *
  33 C       2.4208493 *  3.5673606    0.0000000    2.8394830 *  4.0647760  
  34 C       1.4077545 *  2.1854161 *  2.8394830 *  0.0000000    1.3657571 *
  35 C       2.2865885 *  2.1952818 *  4.0647760    1.3657571 *  0.0000000  
  36 C       2.2729347 *  1.3606539 *  4.3841210    2.1737877 *  1.3334925 *

               36 C     

   1 C       5.0652041  
   2 C       3.9994990  
   3 C       5.2676783  
   4 C       2.2516495 *
   5 C       3.4816766  
   6 C       4.3701992  
   7 C       1.3687752 *
   8 C       5.5151410  
   9 C       5.6275803  
  10 C       5.6201779  
  11 C       4.9552911  
  12 C       4.9567329  
  13 C       5.5247888  
  14 C       3.1976372  
  15 C       4.1728590  
  16 C       4.1580458  
  17 C       3.1860671  
  18 C       2.1749908 *
  19 C       5.2030735  
  20 C       5.0624227  
  21 C       5.2778346  
  22 C       4.4196724  
  23 C       4.4255836  
  24 C       5.2140303  
  25 C       3.5077186  
  26 C       3.5096254  
  27 C       2.2857569 *
  28 C       2.2775772 *
  29 C       4.0023222  
  30 C       3.5017776  
  31 C       2.2729347 *
  32 C       1.3606539 *
  33 C       4.3841210  
  34 C       2.1737877 *
  35 C       1.3334925 *
  36 C       0.0000000  

  * ... LESS THAN  3.000


 TOTAL NUMBER OF BASIS SET SHELLS             =   36
 NUMBER OF CARTESIAN GAUSSIAN BASIS FUNCTIONS =  144
 NUMBER OF ELECTRONS                          =  144
 CHARGE OF MOLECULE                           =    0
 SPIN MULTIPLICITY                            =    1
 NUMBER OF OCCUPIED ORBITALS (ALPHA)          =   72
 NUMBER OF OCCUPIED ORBITALS (BETA )          =   72
 TOTAL NUMBER OF ATOMS                        =   36
 THE NUCLEAR REPULSION ENERGY IS     3823.6441134227

 THE PARAMETERS USED IN THIS CALCULATION ARE DESCRIBED IN:

  C: (PM3): J. J. P. STEWART, J. COMP. CHEM. 10, 209 (1989).                    

 THERE ARE   36 HEAVY AND    0 LIGHT ATOMS,
 YIELDING A TOTAL OF     63000 MOPAC 2E- INTEGRALS.

     $CONTRL OPTIONS
     ---------------
 SCFTYP=RHF          RUNTYP=OPTIMIZE     EXETYP=RUN     
 MPLEVL=       0     CITYP =NONE         CCTYP =NONE         VBTYP =NONE    
 DFTTYP=NONE         TDDFT =NONE    
 MULT  =       1     ICHARG=       0     NZVAR =       0     COORD =UNIQUE  
 PP    =NONE         RELWFN=NONE         LOCAL =NONE         NUMGRD=       F
 ISPHER=      -1     NOSYM =       0     MAXIT =     200     UNITS =ANGS    
 PLTORB=       F     MOLPLT=       F     AIMPAC=       F     FRIEND=        
 NPRINT=       7     IREST =       0     GEOM  =INPUT   
 NORMF =       0     NORMP =       0     ITOL  =      20     ICUT  =       9
 INTTYP=BEST         GRDTYP=BEST         QMTTOL= 1.0E-06

     $SYSTEM OPTIONS
     ---------------
  REPLICATED MEMORY=    10000000 WORDS (ON EVERY NODE).
 DISTRIBUTED MEMDDI=           0 MILLION WORDS IN AGGREGATE,
 MEMDDI DISTRIBUTED OVER   2 PROCESSORS IS           0 WORDS/PROCESSOR.
 TOTAL MEMORY REQUESTED ON EACH PROCESSOR=    10000000 WORDS.
 TIMLIM=      525600.00 MINUTES, OR     365.0 DAYS.
 PARALL= T  BALTYP=  DLB     KDIAG=    0  COREFL= F
 MXSEQ2=     300 MXSEQ3=     150  mem10=         0  mem22=         0

          ----------------
          PROPERTIES INPUT
          ----------------

     MOMENTS            FIELD           POTENTIAL          DENSITY
 IEMOM =       1   IEFLD =       0   IEPOT =       0   IEDEN =       0
 WHERE =COMASS     WHERE =NUCLEI     WHERE =NUCLEI     WHERE =NUCLEI  
 OUTPUT=BOTH       OUTPUT=BOTH       OUTPUT=BOTH       OUTPUT=BOTH    
 IEMINT=       0   IEFINT=       0                     IEDINT=       0
                                                       MORB  =       0
          EXTRAPOLATION IN EFFECT
          SOSCF IN EFFECT
 ORBITAL PRINTING OPTION: NPREO=     1   144     2     1

     -------------------------------
     INTEGRAL TRANSFORMATION OPTIONS
     -------------------------------
     NWORD  =            0
     CUTTRF = 1.0E-09     MPTRAN =       0
     DIRTRF =       T     AOINTS =DUP     

          ----------------------
          INTEGRAL INPUT OPTIONS
          ----------------------
 NOPK  =       1 NORDER=       0 SCHWRZ=       T

     ------------------------------------------
     THE POINT GROUP IS C1 , NAXIS= 0, ORDER= 1
     ------------------------------------------

     DIMENSIONS OF THE SYMMETRY SUBSPACES ARE
 A   =  144

 ..... DONE SETTING UP THE RUN .....
 CPU     0: STEP CPU TIME=     0.02 TOTAL CPU TIME=          0.0 (      0.0 MIN)
 TOTAL WALL CLOCK TIME=          0.0 SECONDS, CPU UTILIZATION IS    97.66%


          -----------------------------
          STATIONARY POINT LOCATION RUN
          -----------------------------

 OBTAINING INITIAL HESSIAN, HESS=GUESS   
 CARTESIAN COORDINATE OPTIMIZATION USING BADGER'S RULE FORCE CONSTANT GUESS

          PARAMETERS CONTROLLING GEOMETRY SEARCH ARE
          METHOD =QA                  UPHESS =BFGS    
          NNEG   =         0          NFRZ   =         0
          NSTEP  =       100          IFOLOW =         1
          HESS   =GUESS               RESTAR =         F
          IHREP  =         0          HSSEND =         F
          NPRT   =         0          NPUN   =         0
          OPTTOL = 1.000E-03          RMIN   = 1.500E-03
          RMAX   = 1.000E-01          RLIM   = 7.000E-02
          DXMAX  = 3.000E-01          PURIFY =         F
          MOVIE  =         F          TRUPD  =         T
          TRMAX  = 5.000E-01          TRMIN  = 5.000E-02
          ITBMAT =         5          STPT   =         F
          STSTEP = 1.000E-02          PROJCT=          T

 BEGINNING GEOMETRY SEARCH POINT NSERCH=   0 ...

 COORDINATES OF ALL ATOMS ARE (ANGS)
   ATOM   CHARGE       X              Y              Z
 ------------------------------------------------------------
 C           6.0   2.5256000000  -1.4530000000  -0.6511000000
 C           6.0   2.4774000000  -0.1710000000  -1.1077000000
 C           6.0   2.5361000000  -1.4799000000   0.6850000000
 C           6.0   1.8770000000   1.8803000000   0.0084000000
 C           6.0   2.5702000000   0.6817000000   0.0070000000
 C           6.0   2.4989000000  -0.1824000000   1.1111000000
 C           6.0   1.0865000000   2.2311000000  -1.1064000000
 C           6.0   1.4047000000  -2.0924000000   1.1105000000
 C           6.0   0.6974000000  -2.6051000000   0.0007000000
 C           6.0  -0.6851000000  -2.5966000000   0.0099000000
 C           6.0   0.7011000000  -1.2181000000   1.9453000000
 C           6.0  -0.6942000000  -1.2312000000   1.9258000000
 C           6.0  -1.4195000000  -2.0985000000   1.1023000000
 C           6.0   0.7133000000   1.2156000000   1.9402000000
 C           6.0   1.4068000000   0.0078000000   1.9592000000
 C           6.0  -1.4047000000  -0.0021000000   1.9192000000
 C           6.0  -0.7017000000   1.2068000000   1.9201000000
 C           6.0   1.0903000000   2.2762000000   1.1068000000
 C           6.0  -1.3694000000  -2.0579000000  -1.0968000000
 C           6.0  -2.5012000000  -1.4572000000  -0.6403000000
 C           6.0  -2.5564000000  -1.4699000000   0.6976000000
 C           6.0  -0.6802000000  -1.2217000000  -1.9749000000
 C           6.0   0.7101000000  -1.2247000000  -1.9755000000
 C           6.0   1.3967000000  -2.0644000000  -1.1026000000
 C           6.0  -1.4007000000  -0.0003000000  -1.9518000000
 C           6.0   1.4071000000   0.0099000000  -1.9851000000
 C           6.0   0.6999000000   1.2076000000  -1.9759000000
 C           6.0  -0.7111000000   1.2103000000  -1.9530000000
 C           6.0  -2.4773000000  -0.1696000000  -1.0794000000
 C           6.0  -2.6105000000   0.7100000000   0.0067000000
 C           6.0  -1.8983000000   1.8956000000   0.0122000000
 C           6.0  -1.0814000000   2.2439000000  -1.0861000000
 C           6.0  -2.5321000000  -0.1706000000   1.1029000000
 C           6.0  -1.0876000000   2.2740000000   1.0991000000
 C           6.0   0.0040000000   2.9771000000   0.6756000000
 C           6.0   0.0057000000   2.9409000000  -0.6574000000

          ********************
          1 ELECTRON INTEGRALS
          ********************

          **************************
          1 AND 2 ELECTRON INTEGRALS
          **************************

 MOPAC ONE- AND TWO-ELECTRON INTEGRALS REQUIRE     83880 WORDS.
 ...... END OF ONE- AND TWO-ELECTRON INTEGRALS......
 CPU     0: STEP CPU TIME=     0.00 TOTAL CPU TIME=          0.0 (      0.0 MIN)
 TOTAL WALL CLOCK TIME=          0.0 SECONDS, CPU UTILIZATION IS    97.66%
 ...... END OF ONE-ELECTRON INTEGRALS ......
 CPU     0: STEP CPU TIME=     0.00 TOTAL CPU TIME=          0.0 (      0.0 MIN)
 TOTAL WALL CLOCK TIME=          0.0 SECONDS, CPU UTILIZATION IS    97.66%

          -------------
          GUESS OPTIONS
          -------------
          GUESS =HUCKEL            NORB  =       0          NORDER=       0
          MIX   =       F          PRTMO =       F          PUNMO =       F
          TOLZ  = 1.0E-08          TOLE  = 1.0E-05
          SYMDEN=       F          PURIFY=       F

 INITIAL GUESS ORBITALS GENERATED BY HUCKEL   ROUTINE.

 SYMMETRIES FOR INITIAL GUESS ORBITALS FOLLOW.   BOTH SET(S).
    72 ORBITALS ARE OCCUPIED (    0 CORE ORBITALS).
     1=A        2=A        3=A        4=A        5=A        6=A        7=A   
     8=A        9=A       10=A       11=A       12=A       13=A       14=A   
    15=A       16=A       17=A       18=A       19=A       20=A       21=A   
    22=A       23=A       24=A       25=A       26=A       27=A       28=A   
    29=A       30=A       31=A       32=A       33=A       34=A       35=A   
    36=A       37=A       38=A       39=A       40=A       41=A       42=A   
    43=A       44=A       45=A       46=A       47=A       48=A       49=A   
    50=A       51=A       52=A       53=A       54=A       55=A       56=A   
    57=A       58=A       59=A       60=A       61=A       62=A       63=A   
    64=A       65=A       66=A       67=A       68=A       69=A       70=A   
    71=A       72=A       73=A       74=A       75=A       76=A       77=A   
    78=A       79=A       80=A       81=A       82=A   
 ...... END OF INITIAL ORBITAL SELECTION ......
 CPU     0: STEP CPU TIME=     0.00 TOTAL CPU TIME=          0.0 (      0.0 MIN)
 TOTAL WALL CLOCK TIME=          0.0 SECONDS, CPU UTILIZATION IS    50.40%

          --------------------------
               R-PM3 SCF CALCULATION
          --------------------------

     NUCLEAR ENERGY =      1527.0674795578
     MAXIT =  200     NPUNCH=    2
     EXTRAP=T  DAMP=F  SHIFT=F  RSTRCT=F  DIIS=F  DEM=F  SOSCF=T
     DENSITY MATRIX CONV=  2.00E-05
     SOSCF WILL OPTIMIZE    5184 ORBITAL ROTATIONS, SOGTOL=   0.250
     MEMORY REQUIRED FOR RHF ITERS=    231480 WORDS.

                                                                                   NONZERO     BLOCKS
 ITER EX DEM     TOTAL ENERGY        E CHANGE  DENSITY CHANGE     ORB. GRAD      INTEGRALS    SKIPPED
   1  0  0     -154.0458463729  -154.0458463729   0.165760757   0.000000000              0          0
          ---------------START SECOND ORDER SCF---------------
   2  1  0     -155.1293708832    -1.0835245103   0.049740504   0.020681818              0          0
   3  2  0     -155.2155792268    -0.0862083436   0.024595420   0.006332322              0          0
   4  3  0     -155.2256167170    -0.0100374903   0.012544738   0.005167560              0          0
   5  4  0     -155.2268787726    -0.0012620556   0.004564731   0.003178071              0          0
   6  5  0     -155.2274226872    -0.0005439145   0.007665286   0.001694753              0          0
   7  6  0     -155.2277167163    -0.0002940291   0.004872184   0.000770275              0          0
   8  7  0     -155.2277935704    -0.0000768541   0.002739319   0.000522350              0          0
   9  8  0     -155.2278238089    -0.0000302384   0.002065990   0.000326896              0          0
  10  9  0     -155.2278447751    -0.0000209663   0.003488120   0.000342507              0          0
  11 10  0     -155.2278699654    -0.0000251903   0.007058760   0.000359236              0          0
  12 11  0     -155.2279132902    -0.0000433248   0.017918527   0.000663797              0          0
  13 12  0     -155.2280096103    -0.0000963201   0.026778701   0.001063353              0          0
  14 13  0     -155.2281137619    -0.0001041515   0.004585504   0.001174015              0          0
  15 14  0     -155.2282269758    -0.0001132139   0.008682466   0.000738608              0          0
  16 15  0     -155.2283372765    -0.0001103007   0.001405101   0.000345272              0          0
  17 16  0     -155.2283510947    -0.0000138181   0.001526420   0.000276681              0          0
  18 17  0     -155.2283655460    -0.0000144513   0.004894745   0.000229865              0          0
  19 18  0     -155.2283822570    -0.0000167110   0.003338716   0.000217926              0          0
  20 19  0     -155.2283928226    -0.0000105656   0.004282889   0.000284909              0          0
  21 20  0     -155.2284118722    -0.0000190496   0.015227614   0.000335423              0          0
  22 21  0     -155.2284660119    -0.0000541398   0.013681349   0.000455858              0          0
  23 22  0     -155.2285102475    -0.0000442356   0.014666489   0.000435027              0          0
  24 23  0     -155.2285617883    -0.0000515409   0.004295537   0.000441009              0          0
  25 24  0     -155.2285924705    -0.0000306821   0.003553197   0.000308726              0          0
  26 25  0     -155.2286075151    -0.0000150446   0.001636446   0.000178023              0          0
  27 26  0     -155.2286152073    -0.0000076923   0.003783484   0.000148306              0          0
  28 27  0     -155.2286215819    -0.0000063745   0.001660768   0.000136607              0          0
  29 28  0     -155.2286261242    -0.0000045423   0.002355498   0.000120398              0          0
  30 29  0     -155.2286301162    -0.0000039920   0.001818525   0.000113643              0          0
  31 30  0     -155.2286341394    -0.0000040232   0.002086526   0.000106173              0          0
  32 31  0     -155.2286380196    -0.0000038802   0.002072189   0.000092077              0          0
  33 32  0     -155.2286412635    -0.0000032439   0.001411492   0.000114140              0          0
  34 33  0     -155.2286433345    -0.0000020709   0.000818875   0.000088269              0          0
  35 34  0     -155.2286443960    -0.0000010616   0.000345491   0.000037632              0          0
  36 35  0     -155.2286448198    -0.0000004238   0.000149733   0.000019473              0          0
  37 36  0     -155.2286449515    -0.0000001317   0.000068111   0.000010553              0          0
  38 37  0     -155.2286449861    -0.0000000346   0.000047378   0.000007479              0          0
  39 38  0     -155.2286449976    -0.0000000114   0.000035270   0.000004835              0          0
  40 39  0     -155.2286450025    -0.0000000049   0.000016566   0.000002412              0          0
  41 40  0     -155.2286450043    -0.0000000018   0.000010301   0.000001678              0          0

          -----------------
          DENSITY CONVERGED
          -----------------
     TIME TO FORM FOCK OPERATORS=       0.0 SECONDS (       0.0 SEC/ITER)
     FOCK TIME ON FIRST ITERATION=       0.0, LAST ITERATION=       0.0
     TIME TO SOLVE SCF EQUATIONS=       0.1 SECONDS (       0.0 SEC/ITER)

 FINAL R-PM3 ENERGY IS     -155.2286450043 AFTER  41 ITERATIONS

 HEAT OF FORMATION IS      1084.36500 KCAL/MOL
 

          ------------
          EIGENVECTORS
          ------------

                      1          2          3          4          5
                   -1.9471    -1.7612    -1.7607    -1.6165    -1.4099
                     A          A          A          A          A   
    1  C  1  S    0.170737  -0.047974   0.294428   0.074473  -0.114648
    2  C  1  X   -0.044251   0.021876  -0.065207  -0.030806  -0.023114
    3  C  1  Y    0.025328   0.013363   0.041684   0.017611  -0.081273
    4  C  1  Z    0.021292  -0.007876   0.044983  -0.044426  -0.023671
    5  C  2  S    0.164012   0.023148   0.239674   0.131080  -0.193440
    6  C  2  X   -0.035516  -0.005134  -0.035692  -0.050548   0.004915
    7  C  2  Y   -0.013054   0.030743  -0.042510  -0.010385   0.002601
    8  C  2  Z    0.027994   0.003973   0.053828  -0.029008  -0.060432
    9  C  3  S    0.170035  -0.050495   0.296050  -0.071379  -0.115345
   10  C  3  X   -0.045396   0.023233  -0.068419   0.029874  -0.021961
   11  C  3  Y    0.025990   0.012180   0.043666  -0.017270  -0.082077
   12  C  3  Z   -0.020872   0.006814  -0.042778  -0.042271   0.020941
   13  C  4  S    0.156632   0.204723   0.048433  -0.007255   0.016845
   14  C  4  X   -0.036664  -0.066502   0.022421   0.002727  -0.059393
   15  C  4  Y   -0.018606   0.006090  -0.041859  -0.001227   0.065798
   16  C  4  Z   -0.000309  -0.000771   0.000475  -0.052895  -0.001099
   17  C  5  S    0.157414   0.085538   0.194170  -0.001542  -0.202439
   18  C  5  X   -0.034788  -0.029483  -0.023871   0.000780   0.011085
   19  C  5  Y   -0.023001   0.027552  -0.067375  -0.001153   0.070254
   20  C  5  Z    0.000092  -0.000586   0.000988  -0.053568  -0.001956
   21  C  6  S    0.164201   0.019483   0.245691  -0.125700  -0.202995
   22  C  6  X   -0.036513  -0.004055  -0.039369   0.049324   0.009432
   23  C  6  Y   -0.013349   0.030860  -0.043128   0.008333   0.002407
   24  C  6  Z   -0.027983  -0.004609  -0.052660  -0.027765   0.058507
   25  C  7  S    0.164720   0.243623  -0.026185   0.119744   0.109332
   26  C  7  X   -0.029646  -0.051096   0.035351  -0.030895  -0.043194
   27  C  7  Y   -0.024029  -0.013091  -0.017295  -0.039202   0.028191
   28  C  7  Z    0.027494   0.052432  -0.005633  -0.031489   0.035618
   29  C  8  S    0.164571  -0.100643   0.225346  -0.123284   0.113340
   30  C  8  X   -0.006516   0.021602   0.027065   0.015909  -0.080795
   31  C  8  Y    0.038720  -0.007765   0.057379  -0.047244  -0.032293
   32  C  8  Z   -0.027979   0.020993  -0.048133  -0.027775  -0.029942
   33  C  9  S    0.155690  -0.142922   0.151989   0.002477   0.281407
   34  C  9  X    0.001376   0.022186   0.054849   0.000107  -0.068188
   35  C  9  Y    0.042135  -0.029526   0.047699   0.000948   0.036785
   36  C  9  Z    0.000938  -0.001474   0.001784  -0.051557   0.001842
   37  C 10  S    0.157410  -0.209516  -0.021111  -0.000431   0.338932
   38  C 10  X   -0.002251   0.020500   0.056699   0.001384   0.031432
   39  C 10  Y    0.042185  -0.053417  -0.016701   0.000095   0.052404
   40  C 10  Z    0.000444  -0.001388   0.000144  -0.051721   0.001591
   41  C 11  S    0.155153  -0.075560   0.125560  -0.235922   0.079167
   42  C 11  X    0.002030   0.017318   0.053794   0.010138  -0.046773
   43  C 11  Y    0.011705   0.020259   0.001140  -0.037451  -0.048350
   44  C 11  Z   -0.036012   0.023083  -0.040391   0.028260  -0.026797
   45  C 12  S    0.155078  -0.138640  -0.040169  -0.232748   0.106757
   46  C 12  X   -0.001556   0.022250   0.052870  -0.011836   0.030724
   47  C 12  Y    0.011375   0.015050  -0.012750  -0.036624  -0.056868
   48  C 12  Z   -0.035606   0.043745   0.015128   0.026758  -0.038103
   49  C 13  S    0.164720  -0.223947  -0.104149  -0.122778   0.194435
   50  C 13  X    0.007173   0.000218   0.034080  -0.015859   0.071641
   51  C 13  Y    0.038651  -0.043378  -0.037821  -0.045975  -0.022007
   52  C 13  Z   -0.028593   0.048184   0.023607  -0.025901  -0.052350
   53  C 14  S    0.151658   0.137037   0.007655  -0.235798   0.004707
   54  C 14  X   -0.010861  -0.010361   0.035478   0.026277  -0.015703
   55  C 14  Y   -0.005239   0.036869  -0.027622   0.027913   0.034882
   56  C 14  Z   -0.035030  -0.044997  -0.000171   0.028874  -0.009563
   57  C 15  S    0.153126   0.027274   0.141303  -0.236264  -0.073538
   58  C 15  X   -0.009668   0.000272   0.026421   0.037819  -0.035265
   59  C 15  Y   -0.008262   0.038119  -0.036141   0.009502  -0.005163
   60  C 15  Z   -0.036250  -0.008304  -0.045962   0.030038   0.030709
   61  C 16  S    0.153205  -0.071349  -0.121309  -0.230334  -0.093606
   62  C 16  X    0.009023   0.017980   0.022327  -0.037413   0.039869
   63  C 16  Y   -0.008267   0.053035   0.002141   0.009347  -0.033542
   64  C 16  Z   -0.034923   0.023347   0.039070   0.026222   0.037373
   65  C 17  S    0.152111   0.101715  -0.090607  -0.233776  -0.037106
   66  C 17  X    0.011277   0.031300   0.021228  -0.028076   0.039721
   67  C 17  Y   -0.004169   0.046668  -0.004846   0.025907   0.029659
   68  C 17  Z   -0.034479  -0.033849   0.028965   0.027183   0.007120
   69  C 18  S    0.161069   0.239591  -0.024838  -0.130306   0.108326
   70  C 18  X   -0.029003  -0.050281   0.034042   0.032817  -0.043084
   71  C 18  Y   -0.024743  -0.015053  -0.017113   0.037263   0.027118
   72  C 18  Z   -0.028310  -0.053723   0.006684  -0.023596  -0.037201
   73  C 19  S    0.165563  -0.217981  -0.102059   0.126343   0.190273
   74  C 19  X    0.006008   0.002731   0.035423   0.017831   0.068730
   75  C 19  Y    0.036953  -0.038102  -0.036421   0.047214  -0.026774
   76  C 19  Z    0.028416  -0.049224  -0.022908  -0.029731   0.055271
   77  C 20  S    0.174002  -0.232542  -0.193911   0.066512  -0.049389
   78  C 20  X    0.043599  -0.058163  -0.033251   0.029115   0.049690
   79  C 20  Y    0.025949  -0.017456  -0.041315   0.016709  -0.102416
   80  C 20  Z    0.021769  -0.036038  -0.029173  -0.045562  -0.008623
   81  C 21  S    0.169404  -0.229941  -0.190037  -0.075317  -0.048117
   82  C 21  X    0.045847  -0.062884  -0.037102  -0.030201   0.046852
   83  C 21  Y    0.025509  -0.018311  -0.040249  -0.017138  -0.098495
   84  C 21  Z   -0.022071   0.034635   0.029597  -0.038157   0.011128
   85  C 22  S    0.152403  -0.126279  -0.041635   0.241447   0.097054
   86  C 22  X   -0.000948   0.020620   0.049796   0.013543   0.031876
   87  C 22  Y    0.013106   0.014108  -0.014031   0.039388  -0.052727
   88  C 22  Z    0.036078  -0.042504  -0.015221   0.030438   0.036233
   89  C 23  S    0.151942  -0.067691   0.115760   0.244037   0.080227
   90  C 23  X    0.000648   0.016851   0.050600  -0.011861  -0.042609
   91  C 23  Y    0.013163   0.019694   0.001552   0.039902  -0.043777
   92  C 23  Z    0.035696  -0.021990   0.039339   0.030683   0.026649
   93  C 24  S    0.163320  -0.096315   0.218491   0.130888   0.114107
   94  C 24  X   -0.006506   0.021059   0.027261  -0.016866  -0.078799
   95  C 24  Y    0.037051  -0.005308   0.053071   0.048667  -0.031714
   96  C 24  Z    0.027732  -0.021462   0.048806  -0.028748   0.028886
   97  C 25  S    0.154810  -0.062995  -0.123948   0.239960  -0.095973
   98  C 25  X    0.010724   0.017781   0.019577   0.041485   0.038524
   99  C 25  Y   -0.006793   0.051780   0.000757  -0.008783  -0.032555
  100  C 25  Z    0.035829  -0.022640  -0.039916   0.027752  -0.038120
  101  C 26  S    0.152057   0.032782   0.131368   0.244184  -0.061612
  102  C 26  X   -0.011028  -0.001013   0.025730  -0.040394  -0.033049
  103  C 26  Y   -0.006881   0.037543  -0.033990  -0.010149  -0.005651
  104  C 26  Z    0.036081   0.009028   0.044570   0.031425  -0.028417
  105  C 27  S    0.153974   0.141344   0.001243   0.240873   0.010505
  106  C 27  X   -0.011960  -0.011426   0.036125  -0.027325  -0.013934
  107  C 27  Y   -0.005567   0.035479  -0.026233  -0.032524   0.032572
  108  C 27  Z    0.036047   0.046158  -0.000665   0.028986   0.010229
  109  C 28  S    0.155721   0.107635  -0.096542   0.239346  -0.037050
  110  C 28  X    0.012153   0.032460   0.019815   0.029331   0.041589
  111  C 28  Y   -0.005392   0.045050  -0.003333  -0.032002   0.030657
  112  C 28  Z    0.035888   0.035264  -0.030368   0.027068  -0.007538
  113  C 29  S    0.166609  -0.140734  -0.200387   0.121549  -0.230994
  114  C 29  X    0.035646  -0.019717  -0.030553   0.048995  -0.009774
  115  C 29  Y   -0.013171   0.052095   0.011929  -0.009297  -0.036403
  116  C 29  Z    0.028109  -0.032052  -0.043377  -0.030866  -0.066326
  117  C 30  S    0.155174  -0.058792  -0.200686  -0.004748  -0.303642
  118  C 30  X    0.035912   0.006425  -0.039162  -0.000683  -0.041090
  119  C 30  Y   -0.023152   0.063542   0.033191   0.000251   0.046365
  120  C 30  Z   -0.000219  -0.000956   0.000395  -0.049575   0.000745
  121  C 31  S    0.156561   0.124519  -0.171076  -0.008308  -0.133454
  122  C 31  X    0.037246   0.065909  -0.027261  -0.002712   0.041084
  123  C 31  Y   -0.019078   0.031087   0.028202  -0.000525   0.082144
  124  C 31  Z   -0.000761  -0.001087   0.001144  -0.050724   0.000795
  125  C 32  S    0.167163   0.206671  -0.142558   0.117258   0.015559
  126  C 32  X    0.029555   0.062154  -0.006416   0.030805   0.064889
  127  C 32  Y   -0.024195   0.000989   0.021990  -0.038240   0.046745
  128  C 32  Z    0.027679   0.044099  -0.030027  -0.032372   0.009459
  129  C 33  S    0.161902  -0.142858  -0.195776  -0.121469  -0.225872
  130  C 33  X    0.036482  -0.022813  -0.032487  -0.047186  -0.013890
  131  C 33  Y   -0.013596   0.051241   0.012809   0.009431  -0.035039
  132  C 33  Z   -0.028746   0.031045   0.043892  -0.024245   0.067583
  133  C 34  S    0.161902   0.200257  -0.136863  -0.128618   0.016031
  134  C 34  X    0.028646   0.060045  -0.005899  -0.032850   0.062223
  135  C 34  Y   -0.024318  -0.000067   0.021809   0.036418   0.045303
  136  C 34  Z   -0.028808  -0.045531   0.031043  -0.023480  -0.009727
  137  C 35  S    0.165598   0.276502  -0.102058  -0.079976   0.169107
  138  C 35  X   -0.000341   0.006633   0.020284  -0.000169   0.023260
  139  C 35  Y   -0.052094  -0.077624   0.028410   0.036119  -0.033268
  140  C 35  Z   -0.022010  -0.043609   0.016571  -0.036718  -0.034809
  141  C 36  S    0.170368   0.283829  -0.105683   0.057933   0.172383
  142  C 36  X   -0.001075   0.005531   0.021599  -0.000335   0.023120
  143  C 36  Y   -0.051939  -0.076649   0.028518  -0.031720  -0.031581
  144  C 36  Z    0.021130   0.042112  -0.015472  -0.045016   0.033874

                      6          7          8          9         10
                   -1.4060    -1.3678    -1.3665    -1.3312    -1.1688
                     A          A          A          A          A   
    1  C  1  S   -0.116101  -0.169761  -0.059707  -0.164575  -0.005591
    2  C  1  X    0.054103   0.062405   0.015261   0.007700  -0.073211
    3  C  1  Y    0.060798  -0.027525  -0.018151  -0.007710  -0.131525
    4  C  1  Z   -0.033185   0.087057   0.025672  -0.072310   0.000689
    5  C  2  S    0.120495  -0.193142  -0.123597  -0.043456  -0.191859
    6  C  2  X   -0.018337   0.056079   0.037448  -0.044715  -0.016132
    7  C  2  Y    0.083666   0.061639  -0.004436   0.026929  -0.009029
    8  C  2  Z    0.021491   0.035305   0.023363  -0.078027  -0.073589
    9  C  3  S   -0.143308   0.132952   0.034405  -0.181973   0.004711
   10  C  3  X    0.065005  -0.053975  -0.008964   0.015408  -0.077408
   11  C  3  Y    0.053139   0.031192   0.020575  -0.012448  -0.131091
   12  C  3  Z    0.019014   0.093132   0.030396   0.061413   0.001501
   13  C  4  S    0.335295   0.014189   0.017804  -0.094112   0.185761
   14  C  4  X   -0.029484  -0.000321  -0.002550   0.024161  -0.095601
   15  C  4  Y   -0.050183  -0.004347  -0.000779  -0.020185   0.079448
   16  C  4  Z   -0.002852  -0.020417   0.085688   0.001982  -0.002627
   17  C  5  S    0.270603   0.008793   0.008911  -0.097574  -0.188243
   18  C  5  X   -0.063468  -0.004099  -0.003228  -0.005067  -0.019862
   19  C  5  Y    0.045423   0.005478   0.004430   0.033466   0.122129
   20  C  5  Z   -0.005749   0.053277   0.069936  -0.002823  -0.002889
   21  C  6  S    0.085628   0.189748   0.121373  -0.069400  -0.198729
   22  C  6  X   -0.009071  -0.061681  -0.039785  -0.037303  -0.011938
   23  C  6  Y    0.090860  -0.045270   0.014803   0.033808  -0.015160
   24  C  6  Z   -0.028121   0.041266   0.025005   0.072254   0.072081
   25  C  7  S    0.195780   0.135521  -0.183373  -0.060108   0.199509
   26  C  7  X    0.055739  -0.061990   0.045596   0.009207   0.017709
   27  C  7  Y   -0.049367  -0.012936   0.042955  -0.051789   0.005504
   28  C  7  Z    0.052833  -0.027203   0.042486  -0.072697   0.070266
   29  C  8  S   -0.213819   0.208468  -0.001391  -0.058740   0.202811
   30  C  8  X   -0.007045  -0.004420   0.028867  -0.051178  -0.003447
   31  C  8  Y   -0.016873   0.080771   0.019667   0.013419  -0.016288
   32  C  8  Z    0.057295   0.052160   0.006181   0.068764  -0.070754
   33  C  9  S   -0.187770  -0.017120  -0.006466  -0.080180   0.187508
   34  C  9  X   -0.060322  -0.005698  -0.005236  -0.030045   0.111599
   35  C  9  Y   -0.044546  -0.004450  -0.001803  -0.010550   0.045050
   36  C  9  Z   -0.005795   0.080781  -0.027085  -0.003048   0.003630
   37  C 10  S    0.037026  -0.000370   0.003652  -0.084263  -0.179751
   38  C 10  X   -0.085165  -0.004342  -0.001212   0.032927   0.116351
   39  C 10  Y    0.022694   0.001197   0.002367  -0.011224  -0.044166
   40  C 10  Z    0.001779   0.032542  -0.081192   0.002409  -0.001551
   41  C 11  S   -0.074661   0.259683  -0.020576   0.203695   0.042205
   42  C 11  X   -0.024213   0.059727   0.074557  -0.056999   0.018784
   43  C 11  Y    0.032895   0.003330   0.038129   0.067692  -0.031858
   44  C 11  Z    0.031527  -0.047456   0.003769   0.011675  -0.024293
   45  C 12  S    0.028101   0.055579  -0.245247   0.217588  -0.042547
   46  C 12  X   -0.042936   0.072021   0.069147   0.046679   0.021018
   47  C 12  Y   -0.004721  -0.031195   0.000082   0.071299   0.029380
   48  C 12  Z   -0.014650  -0.005711   0.048201   0.010110   0.024285
   49  C 13  S    0.134216   0.013571  -0.220153  -0.047244  -0.198769
   50  C 13  X   -0.041330   0.030763   0.000148   0.048211  -0.005435
   51  C 13  Y    0.028820  -0.012037  -0.080809   0.020243   0.015364
   52  C 13  Z   -0.037454   0.001731  -0.045357   0.073599   0.069835
   53  C 14  S    0.106203  -0.091329   0.238465   0.212178   0.039179
   54  C 14  X    0.057287   0.075627   0.009483  -0.041588   0.013383
   55  C 14  Y    0.003345  -0.073460   0.020577  -0.074125   0.032550
   56  C 14  Z   -0.037101   0.022403  -0.045200   0.010016  -0.023804
   57  C 15  S    0.065728   0.206650   0.170740   0.196960  -0.043585
   58  C 15  X    0.011531   0.027661   0.009718  -0.088718  -0.034047
   59  C 15  Y    0.066054  -0.088438   0.040308   0.011161   0.000012
   60  C 15  Z   -0.022492  -0.041281  -0.031849   0.012131   0.024584
   61  C 16  S   -0.020892  -0.138300  -0.204812   0.224789   0.039735
   62  C 16  X   -0.002890   0.013700   0.034369   0.084429  -0.035488
   63  C 16  Y   -0.053607  -0.047502   0.085937   0.009993  -0.000090
   64  C 16  Z    0.006477   0.027436   0.041383   0.008490  -0.024002
   65  C 17  S   -0.080639  -0.233742   0.086438   0.227996  -0.037774
   66  C 17  X    0.049001   0.005921   0.077941   0.032937   0.016591
   67  C 17  Y   -0.018336  -0.035175   0.065279  -0.075594  -0.028683
   68  C 17  Z    0.035879   0.047867  -0.016295   0.007078   0.023500
   69  C 18  S    0.191838  -0.115659   0.198986  -0.049778   0.195638
   70  C 18  X    0.050605   0.066673  -0.038867   0.003111   0.016324
   71  C 18  Y   -0.048692   0.002133  -0.047464  -0.049751   0.003922
   72  C 18  Z   -0.052155  -0.022849   0.033135   0.073689  -0.071544
   73  C 19  S    0.109135  -0.002990   0.238963  -0.058276  -0.188010
   74  C 19  X   -0.038936  -0.032340  -0.000363   0.051479  -0.000311
   75  C 19  Y    0.016768   0.016869   0.084965   0.016229   0.019126
   76  C 19  Z    0.040619   0.001173  -0.047257  -0.071014  -0.071545
   77  C 20  S    0.154430   0.035273   0.155323  -0.185473   0.001704
   78  C 20  X    0.037146   0.010349   0.061536  -0.013106  -0.076889
   79  C 20  Y   -0.017812   0.014473   0.030904  -0.009591   0.131598
   80  C 20  Z    0.037885  -0.023654  -0.099848  -0.061687   0.000601
   81  C 21  S    0.170705  -0.035645  -0.158608  -0.165705   0.002968
   82  C 21  X    0.047381  -0.005397  -0.058340  -0.012399  -0.075353
   83  C 21  Y   -0.012409  -0.019556  -0.031898  -0.004768   0.129849
   84  C 21  Z   -0.027060  -0.018126  -0.085392   0.072030  -0.002247
   85  C 22  S    0.010778  -0.032551   0.265698   0.198382  -0.036702
   86  C 22  X   -0.024860  -0.072806  -0.070133   0.055330   0.018292
   87  C 22  Y   -0.007199   0.038292   0.004089   0.064053   0.024098
   88  C 22  Z    0.010128  -0.005707   0.055576  -0.009773  -0.022356
   89  C 23  S   -0.040813  -0.249965   0.028563   0.217631   0.038315
   90  C 23  X   -0.008582  -0.066153  -0.081655  -0.042914   0.015326
   91  C 23  Y    0.033292   0.004982  -0.033209   0.066768  -0.025945
   92  C 23  Z   -0.024704  -0.055357   0.001411  -0.006127   0.022565
   93  C 24  S   -0.178147  -0.243425  -0.017170  -0.033954   0.187556
   94  C 24  X   -0.004323  -0.001432  -0.035457  -0.047566  -0.004643
   95  C 24  Y   -0.001501  -0.080778  -0.021407   0.023748  -0.020439
   96  C 24  Z   -0.062968   0.038589  -0.002630  -0.073311   0.071106
   97  C 25  S   -0.055885   0.160522   0.220292   0.186597   0.031589
   98  C 25  X    0.001398  -0.002537  -0.029087   0.085035  -0.031501
   99  C 25  Y   -0.050859   0.045079  -0.093768   0.011223  -0.002437
  100  C 25  Z   -0.013492   0.026363   0.044247  -0.014563   0.021514
  101  C 26  S    0.102482  -0.179660  -0.159965   0.217517  -0.031894
  102  C 26  X    0.014724  -0.035737  -0.012455  -0.081045  -0.032720
  103  C 26  Y    0.056224   0.098436  -0.037031   0.002869   0.004954
  104  C 26  Z    0.029844  -0.042128  -0.032298  -0.006323  -0.022782
  105  C 27  S    0.109355   0.132730  -0.227667   0.202914   0.047091
  106  C 27  X    0.065993  -0.076473  -0.006015  -0.030732   0.016849
  107  C 27  Y   -0.004081   0.067530  -0.024007  -0.079910   0.028153
  108  C 27  Z    0.037354   0.027876  -0.045504  -0.010508   0.023896
  109  C 28  S   -0.101900   0.256346  -0.088382   0.193273  -0.041306
  110  C 28  X    0.054187   0.006997  -0.075444   0.036219   0.020420
  111  C 28  Y   -0.015367   0.023103  -0.073645  -0.076148  -0.028624
  112  C 28  Z   -0.040327   0.045151  -0.021875  -0.012700  -0.024578
  113  C 29  S   -0.021928   0.100236   0.200507  -0.069219   0.191092
  114  C 29  X   -0.011846   0.035961   0.065079   0.035681  -0.018439
  115  C 29  Y   -0.078441   0.009199  -0.056515   0.035019   0.009128
  116  C 29  Z    0.005147  -0.027933  -0.046570  -0.069230   0.073328
  117  C 30  S   -0.157574  -0.020784  -0.012012  -0.081953   0.179942
  118  C 30  X   -0.053613  -0.003755  -0.001985   0.006588  -0.019379
  119  C 30  Y   -0.068724  -0.002633  -0.001340   0.034857  -0.124186
  120  C 30  Z    0.006391  -0.062783  -0.056832   0.008090   0.002414
  121  C 31  S   -0.312810  -0.032526  -0.016316  -0.075858  -0.193411
  122  C 31  X   -0.055106  -0.006179  -0.002008  -0.022869  -0.097272
  123  C 31  Y    0.016378  -0.000006   0.001164  -0.021804  -0.076979
  124  C 31  Z    0.005953  -0.085529   0.011273   0.008636   0.003175
  125  C 32  S   -0.232788   0.184656  -0.118337  -0.061076  -0.201285
  126  C 32  X    0.031979   0.051264  -0.058953  -0.011663   0.023962
  127  C 32  Y    0.031076  -0.047169   0.003296  -0.050000  -0.005055
  128  C 32  Z   -0.064443  -0.054531   0.019335  -0.067827  -0.072408
  129  C 33  S    0.008603  -0.109242  -0.199043  -0.039518   0.198221
  130  C 33  X   -0.003277  -0.032271  -0.061370   0.043264  -0.011175
  131  C 33  Y   -0.079470  -0.015975   0.048979   0.033076   0.010569
  132  C 33  Z    0.001547  -0.014805  -0.035771   0.072411  -0.072594
  133  C 34  S   -0.213842  -0.218666   0.093209  -0.031977  -0.192852
  134  C 34  X    0.031511  -0.044787   0.060192  -0.006574   0.022956
  135  C 34  Y    0.028499   0.044317  -0.002445  -0.055807  -0.002522
  136  C 34  Z    0.067836  -0.028569   0.024740   0.071176   0.073785
  137  C 35  S   -0.036822  -0.130725   0.103857  -0.163295   0.005550
  138  C 35  X    0.104887   0.014324   0.013735  -0.003343   0.146265
  139  C 35  Y    0.005750   0.052451  -0.045839   0.014640  -0.001833
  140  C 35  Z    0.010757  -0.060329   0.059991   0.069785   0.000938
  141  C 36  S   -0.042860   0.101182  -0.106906  -0.180428   0.003410
  142  C 36  X    0.110153  -0.000046  -0.000606  -0.000825   0.151741
  143  C 36  Y    0.007650  -0.050433   0.047366   0.018316  -0.001190
  144  C 36  Z   -0.007452  -0.077187   0.064845  -0.061121   0.000181

                     11         12         13         14         15
                   -1.1279    -1.0952    -1.0924    -1.0705    -1.0679
                     A          A          A          A          A   
    1  C  1  S   -0.172292   0.156409   0.101449   0.021437  -0.118513
    2  C  1  X    0.016892   0.000967   0.032933   0.020330   0.050462
    3  C  1  Y   -0.010570  -0.038081   0.033135   0.052424  -0.010751
    4  C  1  Z   -0.023151   0.110115   0.069750  -0.013902   0.093338
    5  C  2  S    0.011241  -0.039835   0.030032   0.218949  -0.051460
    6  C  2  X    0.001494   0.056236   0.075277  -0.049715   0.008934
    7  C  2  Y    0.122397  -0.015575  -0.007594   0.045986   0.098155
    8  C  2  Z    0.026724   0.073923   0.118118  -0.042273   0.016100
    9  C  3  S   -0.184755   0.144782   0.077061  -0.017010   0.149451
   10  C  3  X    0.020789   0.005243   0.037453  -0.024818  -0.041342
   11  C  3  Y   -0.015985  -0.035951   0.026110  -0.052412   0.013890
   12  C  3  Z    0.016654  -0.117752  -0.082656  -0.009093   0.064713
   13  C  4  S    0.269005  -0.058139   0.158301  -0.010304   0.000125
   14  C  4  X    0.049478   0.012964  -0.010512   0.000422   0.002580
   15  C  4  Y   -0.100975  -0.025021   0.012361   0.000234  -0.004521
   16  C  4  Z   -0.004349   0.013718  -0.000018  -0.061585  -0.134666
   17  C  5  S    0.267739   0.006540   0.165330  -0.009004   0.013083
   18  C  5  X   -0.061552   0.019222   0.007653   0.000896   0.001971
   19  C  5  Y    0.093971  -0.031289  -0.020946  -0.000559  -0.004883
   20  C  5  Z   -0.003184   0.005368  -0.006829  -0.142677  -0.047217
   21  C  6  S   -0.003352  -0.035671   0.000945  -0.214603   0.053191
   22  C  6  X    0.001460   0.057123   0.080083   0.046274   0.008587
   23  C  6  Y    0.126238  -0.005653  -0.000358  -0.049381  -0.096517
   24  C  6  Z   -0.027689  -0.073594  -0.120768  -0.033817  -0.009024
   25  C  7  S    0.020155   0.011490   0.013457  -0.031091   0.220883
   26  C  7  X    0.103820  -0.034060   0.033123   0.084594   0.005854
   27  C  7  Y   -0.067177  -0.056048   0.062127  -0.058134  -0.060092
   28  C  7  Z    0.021312  -0.090242   0.107300  -0.006578  -0.041807
   29  C  8  S    0.005386  -0.004808  -0.040109   0.188744   0.128764
   30  C  8  X   -0.110119   0.060708   0.001446  -0.083032   0.057526
   31  C  8  Y   -0.068786  -0.074928  -0.026331   0.004713   0.047743
   32  C  8  Z   -0.031367  -0.137095  -0.027943   0.035352   0.010567
   33  C  9  S    0.282768   0.139183  -0.029405  -0.008691   0.000905
   34  C  9  X   -0.113769   0.040518   0.018606   0.001651  -0.000428
   35  C  9  Y    0.008684   0.004956  -0.001150  -0.002013  -0.001947
   36  C  9  Z    0.002684  -0.002229   0.005439   0.150472   0.013328
   37  C 10  S    0.287016   0.108528  -0.095332   0.002140   0.005311
   38  C 10  X    0.111412  -0.011740   0.044075  -0.008028   0.000501
   39  C 10  Y    0.007752   0.003395  -0.002049   0.000425   0.002969
   40  C 10  Z   -0.000378   0.003467   0.013575   0.114180  -0.098818
   41  C 11  S   -0.040073  -0.289062  -0.046289   0.202157   0.003653
   42  C 11  X   -0.039520  -0.011108  -0.122149  -0.070959   0.088432
   43  C 11  Y   -0.045290  -0.017402  -0.049803  -0.107611  -0.016546
   44  C 11  Z   -0.016103   0.014659   0.007833  -0.043982  -0.020956
   45  C 12  S   -0.037981  -0.128092   0.275277   0.134360  -0.141652
   46  C 12  X    0.039922  -0.086265  -0.070842   0.119051   0.014400
   47  C 12  Y   -0.046056   0.017915   0.037688  -0.080912   0.072059
   48  C 12  Z   -0.016618  -0.003557  -0.018747  -0.020072   0.038535
   49  C 13  S    0.002231   0.047406   0.034685   0.069705  -0.202944
   50  C 13  X    0.112029  -0.030875   0.060616   0.095186  -0.014167
   51  C 13  Y   -0.069923  -0.022557   0.073192  -0.033127  -0.036925
   52  C 13  Z   -0.030295  -0.059042   0.128896   0.007427  -0.032350
   53  C 14  S   -0.015888   0.204143  -0.206881  -0.071268  -0.196023
   54  C 14  X    0.052875  -0.088640  -0.022110  -0.096713  -0.097452
   55  C 14  Y   -0.007774   0.065005   0.040900   0.087111  -0.017297
   56  C 14  Z   -0.017712  -0.019590   0.002421  -0.000601   0.043210
   57  C 15  S   -0.034859  -0.146988  -0.249358  -0.198449  -0.083581
   58  C 15  X    0.016962  -0.010590   0.011653  -0.063614   0.034857
   59  C 15  Y    0.060813   0.121415  -0.016466  -0.078765  -0.111053
   60  C 15  Z   -0.015143   0.014398   0.012538   0.047417  -0.002655
   61  C 16  S   -0.035189   0.083807   0.260956  -0.141937   0.183970
   62  C 16  X   -0.016184   0.018731   0.008782   0.070214  -0.019624
   63  C 16  Y    0.060846   0.077619  -0.082547   0.008698   0.138131
   64  C 16  Z   -0.015099   0.002826  -0.011885   0.038341  -0.027898
   65  C 17  S   -0.017801   0.277077  -0.020686   0.053428   0.213407
   66  C 17  X   -0.051945   0.048779  -0.080658   0.025483  -0.135235
   67  C 17  Y   -0.008566   0.016364  -0.069269   0.090435  -0.023972
   68  C 17  Z   -0.017329  -0.012049   0.008541  -0.027792  -0.041444
   69  C 18  S    0.002868   0.052932   0.033049   0.031142  -0.214757
   70  C 18  X    0.105828  -0.035103   0.027199  -0.086700  -0.008492
   71  C 18  Y   -0.066907  -0.064266   0.057634   0.051281   0.057801
   72  C 18  Z   -0.018724   0.095367  -0.100240   0.005463  -0.033197
   73  C 19  S    0.016189   0.016434   0.003324  -0.071318   0.222545
   74  C 19  X    0.102526  -0.028876   0.047335  -0.106213   0.016365
   75  C 19  Y   -0.066446  -0.032010   0.072428   0.029301   0.042569
   76  C 19  Z    0.035279   0.065371  -0.121681   0.024134  -0.038146
   77  C 20  S   -0.173136   0.013330  -0.179769   0.103804   0.070573
   78  C 20  X   -0.012929   0.022304   0.025457   0.010373   0.050987
   79  C 20  Y   -0.012822  -0.047446   0.016423   0.047806  -0.026905
   80  C 20  Z   -0.024703   0.017444  -0.133995  -0.052750  -0.060286
   81  C 21  S   -0.188374   0.031088  -0.166662  -0.088720  -0.091017
   82  C 21  X   -0.024125   0.029038   0.025424  -0.008215  -0.042097
   83  C 21  Y   -0.013708  -0.045225   0.011575  -0.052022   0.023259
   84  C 21  Z    0.017621  -0.006221   0.140944  -0.059620  -0.034579
   85  C 22  S   -0.053524  -0.137230   0.231635  -0.160108   0.162947
   86  C 22  X    0.028316  -0.073720  -0.077834  -0.116273  -0.035526
   87  C 22  Y   -0.048473   0.028173   0.049959   0.078720  -0.062127
   88  C 22  Z    0.016762  -0.005818   0.016640  -0.023617   0.046156
   89  C 23  S   -0.054209  -0.268750  -0.061983  -0.207544  -0.049174
   90  C 23  X   -0.028687  -0.003635  -0.096822   0.082731  -0.106620
   91  C 23  Y   -0.046340  -0.019939  -0.042499   0.109688   0.009492
   92  C 23  Z    0.016046  -0.014059  -0.008967  -0.046333  -0.027878
   93  C 24  S    0.008516   0.011498  -0.036725  -0.191833  -0.146558
   94  C 24  X   -0.101218   0.060500   0.016280   0.090457  -0.047861
   95  C 24  Y   -0.065588  -0.069376  -0.018711   0.001791  -0.059472
   96  C 24  Z    0.032430   0.133121   0.028189   0.033549   0.026703
   97  C 25  S   -0.041411   0.103053   0.282350   0.125511  -0.144594
   98  C 25  X   -0.025909   0.024426   0.001359  -0.069842   0.023395
   99  C 25  Y    0.058526   0.096709  -0.061908  -0.000148  -0.147872
  100  C 25  Z    0.017847  -0.002850   0.019843   0.040319  -0.027783
  101  C 26  S   -0.036631  -0.152493  -0.237007   0.217847   0.038646
  102  C 26  X    0.025026  -0.012914   0.023607   0.061403  -0.035379
  103  C 26  Y    0.059506   0.102876  -0.025992   0.085197   0.127863
  104  C 26  Z    0.017792  -0.017753  -0.007898   0.049306  -0.006528
  105  C 27  S   -0.019363   0.176870  -0.221686   0.092767   0.199565
  106  C 27  X    0.055493  -0.103235  -0.027050   0.099952   0.087449
  107  C 27  Y   -0.000780   0.056261   0.033146  -0.090660   0.028726
  108  C 27  Z    0.020608   0.011895  -0.008739  -0.000619   0.047445
  109  C 28  S   -0.023763   0.299876   0.001210  -0.048962  -0.190313
  110  C 28  X   -0.053504   0.035766  -0.097348  -0.020136   0.135717
  111  C 28  Y   -0.001294   0.003835  -0.076180  -0.088209   0.021413
  112  C 28  Z    0.020141   0.014607  -0.004920  -0.029461  -0.042801
  113  C 29  S    0.012754  -0.039755   0.026857   0.201888  -0.105327
  114  C 29  X   -0.004144   0.027117   0.095256   0.036990  -0.020648
  115  C 29  Y    0.126068   0.003661   0.016712  -0.022779  -0.101812
  116  C 29  Z    0.028094  -0.047322  -0.133079  -0.031976   0.011147
  117  C 30  S    0.274162  -0.121826  -0.105104  -0.000926  -0.014723
  118  C 30  X    0.063822  -0.006098   0.018183  -0.000227   0.000646
  119  C 30  Y    0.089605  -0.000520   0.036018  -0.000137   0.003339
  120  C 30  Z   -0.003391  -0.001552  -0.006104  -0.082349   0.127456
  121  C 31  S    0.267626  -0.153824  -0.056050   0.002407  -0.004837
  122  C 31  X   -0.052279  -0.016859   0.002271   0.001821   0.002441
  123  C 31  Y   -0.103523  -0.025620   0.009769   0.001311   0.001644
  124  C 31  Z   -0.003773   0.000264  -0.006576   0.031288   0.150970
  125  C 32  S    0.008266   0.002279  -0.035954  -0.158511  -0.169319
  126  C 32  X   -0.107218   0.038610  -0.011070  -0.066584   0.056456
  127  C 32  Y   -0.067239  -0.091588   0.002477  -0.010376   0.074935
  128  C 32  Z    0.018570  -0.141686   0.004529   0.025455   0.029240
  129  C 33  S   -0.000830  -0.036363   0.008713  -0.203195   0.099318
  130  C 33  X   -0.002575   0.023528   0.089376  -0.044170   0.038455
  131  C 33  Y    0.127814  -0.009143   0.005981   0.020038   0.095537
  132  C 33  Z   -0.028959   0.044718   0.124439  -0.035456   0.029928
  133  C 34  S   -0.001342   0.004498  -0.047784   0.160319   0.169698
  134  C 34  X   -0.106830   0.048512  -0.003635   0.065270  -0.050191
  135  C 34  Y   -0.067186  -0.081720   0.012312   0.007682  -0.081876
  136  C 34  Z   -0.017549   0.134421  -0.007123   0.022548   0.033993
  137  C 35  S   -0.195888  -0.136240   0.071126   0.128800  -0.040871
  138  C 35  X    0.003016   0.023680   0.049336  -0.019089  -0.051548
  139  C 35  Y    0.025449  -0.025701   0.008947  -0.045861   0.012011
  140  C 35  Z    0.030010   0.125994  -0.054566   0.075046  -0.015818
  141  C 36  S   -0.187814  -0.158971   0.065142  -0.131264   0.031011
  142  C 36  X    0.005791   0.020192   0.046918   0.016329   0.051614
  143  C 36  Y    0.018736  -0.022259   0.013295   0.046674  -0.014421
  144  C 36  Z   -0.034324  -0.114084   0.058704   0.077482  -0.026773

                     16         17         18         19         20
                   -1.0447    -0.9369    -0.9352    -0.8820    -0.8791
[...]
   25  C  7  S    0.023651  -0.039152   0.013222   0.107831   0.117799
   26  C  7  X   -0.018162  -0.074381   0.032947   0.143900   0.045520
   27  C  7  Y    0.013032  -0.079831   0.001220   0.121331   0.120642
   28  C  7  Z   -0.030156   0.054876  -0.051786  -0.118509  -0.065709
   29  C  8  S   -0.048733   0.012109   0.095926  -0.056918   0.146711
   30  C  8  X   -0.043132  -0.016029   0.020738   0.016859   0.078517
   31  C  8  Y    0.108337  -0.032644  -0.168599   0.064238  -0.196163
   32  C  8  Z   -0.071949  -0.022537   0.088272  -0.058485   0.133190
   33  C  9  S    0.015273  -0.056862  -0.108876   0.021637  -0.063283
   34  C  9  X    0.043016  -0.058489  -0.094908   0.070988  -0.081223
   35  C  9  Y    0.047451   0.332018   0.170713  -0.007799   0.063573
   36  C  9  Z   -0.011303   0.004334  -0.012837  -0.003948  -0.060368
   37  C 10  S    0.060765   0.010221  -0.050364   0.093417  -0.066341
   38  C 10  X   -0.071371   0.012289   0.091226  -0.065896   0.078469
   39  C 10  Y   -0.284237  -0.203055   0.034219  -0.149869   0.047082
   40  C 10  Z   -0.010197   0.010672  -0.004428   0.004145  -0.049546
   41  C 11  S    0.004570   0.023426  -0.037742   0.102196  -0.036596
   42  C 11  X    0.000207   0.033597  -0.091112   0.064668  -0.058164
   43  C 11  Y   -0.044363  -0.065100   0.029783  -0.073728   0.052355
   44  C 11  Z   -0.019425   0.217696  -0.018159   0.172100   0.028077
   45  C 12  S    0.005491  -0.018182  -0.099059  -0.017413  -0.072735
   46  C 12  X    0.006334   0.003187   0.090602  -0.044145   0.069093
   47  C 12  Y    0.003593   0.087681   0.068971   0.009403   0.100892
   48  C 12  Z   -0.100201  -0.119040  -0.140059  -0.102847  -0.121056
   49  C 13  S   -0.028154   0.030498   0.093729  -0.073632   0.123353
   50  C 13  X   -0.012024  -0.028252  -0.011927   0.037026  -0.032207
   51  C 13  Y    0.085831  -0.061060  -0.122520   0.130484  -0.193609
   52  C 13  Z   -0.025359   0.064527   0.083060  -0.053365   0.145922
   53  C 14  S   -0.015757   0.012322  -0.065040  -0.070512  -0.049464
   54  C 14  X   -0.075715   0.027514  -0.039455   0.007578  -0.046886
   55  C 14  Y   -0.043752   0.013129  -0.025963  -0.107741  -0.075583
   56  C 14  Z   -0.179555  -0.029600  -0.154068  -0.062481  -0.107963
   57  C 15  S    0.043040  -0.005157   0.079814  -0.081643  -0.018107
   58  C 15  X    0.108496   0.008980   0.064524  -0.113800  -0.038065
   59  C 15  Y    0.001049   0.014626   0.004217   0.057005   0.001828
   60  C 15  Z    0.247842  -0.080581   0.189844  -0.107830   0.085113
   61  C 16  S    0.009160  -0.058223   0.102610  -0.016382   0.005399
   62  C 16  X   -0.016419   0.124146  -0.130654  -0.023799   0.002014
   63  C 16  Y    0.011616  -0.020821  -0.040287  -0.038287  -0.033088
   64  C 16  Z    0.166114  -0.245882   0.219624  -0.075930   0.083437
   65  C 17  S   -0.051727   0.031238   0.026370   0.099067  -0.005199
   66  C 17  X    0.077316  -0.051852   0.016527  -0.042501   0.031568
   67  C 17  Y   -0.095031   0.041070   0.078173   0.100021   0.001959
   68  C 17  Z   -0.184074   0.228142  -0.018743   0.202555   0.022052
   69  C 18  S   -0.003389  -0.035811  -0.019385   0.101612   0.059868
   70  C 18  X   -0.017382  -0.091387  -0.028729   0.141223   0.107948
   71  C 18  Y   -0.012759  -0.075037  -0.067387   0.106317   0.042095
   72  C 18  Z    0.021042  -0.066605  -0.012726   0.096065   0.089315
   73  C 19  S   -0.059107   0.046832   0.074712  -0.075309   0.053129
   74  C 19  X    0.048347  -0.038512  -0.009888   0.046630  -0.026954
   75  C 19  Y    0.160370  -0.083043  -0.156728   0.116762  -0.022481
   76  C 19  Z    0.067512  -0.095803  -0.120624   0.048753  -0.005925
   77  C 20  S    0.025975  -0.028444   0.033848   0.042772  -0.056536
   78  C 20  X   -0.023188   0.078358  -0.067061  -0.097813   0.128281
   79  C 20  Y   -0.039070   0.045570  -0.022871  -0.052689   0.042508
   80  C 20  Z   -0.012430   0.079198  -0.018077  -0.074792   0.106750
   81  C 21  S   -0.026289  -0.028693  -0.031193   0.043878  -0.049849
   82  C 21  X    0.046077   0.079155   0.047548  -0.096294   0.091752
   83  C 21  Y    0.000897   0.045743   0.043319  -0.060183   0.084509
   84  C 21  Z   -0.013238  -0.079372  -0.013440   0.075396  -0.104210
   85  C 22  S   -0.009970  -0.059576  -0.102972  -0.010390   0.004833
   86  C 22  X   -0.001544   0.044985   0.096848  -0.051187  -0.026014
   87  C 22  Y    0.021130   0.118313   0.091514  -0.007088   0.018299
   88  C 22  Z    0.168163   0.246512   0.220987   0.062489  -0.084068
   89  C 23  S    0.052469   0.031269  -0.020549   0.101016  -0.007170
   90  C 23  X    0.044033   0.008977  -0.071907   0.070297   0.014912
   91  C 23  Y   -0.115164  -0.064461   0.020088  -0.088215   0.027880
   92  C 23  Z   -0.186864  -0.227287  -0.028951  -0.202030  -0.014835
   93  C 24  S   -0.056906   0.027924   0.096563  -0.062004   0.020691
   94  C 24  X   -0.034817   0.020564   0.051996  -0.010556  -0.028203
   95  C 24  Y    0.154501  -0.116754  -0.158138   0.136552  -0.028044
   96  C 24  Z    0.123210  -0.028168  -0.071221   0.110329  -0.017439
   97  C 25  S   -0.005944  -0.017073   0.097414  -0.023193  -0.071681
   98  C 25  X   -0.005381   0.077010  -0.105820  -0.007534   0.121306
   99  C 25  Y   -0.004242  -0.041903  -0.046227  -0.040563   0.010503
  100  C 25  Z   -0.098708   0.119251  -0.134132   0.112296   0.114631
  101  C 26  S    0.015326   0.012345   0.060261  -0.074969  -0.046444
  102  C 26  X    0.075707   0.024474   0.036151  -0.092638  -0.084187
  103  C 26  Y    0.044099   0.017151   0.024548   0.059234  -0.004468
  104  C 26  Z   -0.178701   0.031012  -0.149431   0.072949   0.100955
  105  C 27  S   -0.042798  -0.005420  -0.084178  -0.076635  -0.016927
  106  C 27  X   -0.055094   0.017778  -0.036492  -0.005008  -0.018282
  107  C 27  Y   -0.093611   0.000854  -0.061199  -0.123813  -0.030815
  108  C 27  Z    0.248345   0.079499   0.194407   0.095834  -0.086448
  109  C 28  S   -0.004256   0.024337   0.043411   0.100343  -0.039008
  110  C 28  X    0.037706  -0.039893   0.018013  -0.033072   0.018304
  111  C 28  Y   -0.021781   0.062873   0.097967   0.087602  -0.080005
  112  C 28  Z   -0.021650  -0.217993  -0.026497  -0.171690  -0.019357
  113  C 29  S    0.028558   0.029402  -0.097764  -0.068614   0.126776
  114  C 29  X   -0.068724  -0.065254   0.119312   0.125292  -0.189384
  115  C 29  Y    0.053383   0.005253  -0.052534  -0.030020   0.067483
  116  C 29  Z   -0.025987  -0.063420   0.085706   0.048708  -0.147952
  117  C 30  S   -0.060602   0.010984   0.055698   0.090390  -0.066169
  118  C 30  X    0.280130  -0.172515  -0.083654  -0.158718   0.080852
  119  C 30  Y   -0.079372   0.112265  -0.061213   0.021892   0.044294
  120  C 30  Z   -0.010326  -0.010555  -0.004369  -0.004170   0.051864
  121  C 31  S   -0.015903  -0.055497   0.110002   0.015095  -0.063633
  122  C 31  X   -0.059787   0.257613  -0.100761   0.034831   0.014341
  123  C 31  Y   -0.015850  -0.214798   0.172645   0.055263  -0.102243
  124  C 31  Z   -0.011321  -0.004472  -0.012160   0.004488   0.061605
  125  C 32  S    0.048782   0.010522  -0.098431  -0.051367   0.147219
  126  C 32  X   -0.072671  -0.034080   0.139030   0.056644  -0.134534
  127  C 32  Y    0.091628   0.000468  -0.102614  -0.011909   0.167381
  128  C 32  Z   -0.071691   0.024372   0.090894   0.054127  -0.136883
  129  C 33  S    0.059693   0.045684  -0.079426  -0.070528   0.049917
  130  C 33  X   -0.163880  -0.088349   0.148730   0.115564  -0.029285
  131  C 33  Y    0.038465   0.007152  -0.070984  -0.014191  -0.009647
  132  C 33  Z    0.068680   0.093880  -0.124325  -0.041555   0.004834
  133  C 34  S    0.057230   0.026948  -0.100511  -0.056185   0.021115
  134  C 34  X   -0.117014  -0.088980   0.118155   0.105639  -0.034991
  135  C 34  Y    0.107850   0.074402  -0.129322  -0.069817  -0.010344
  136  C 34  Z    0.123114   0.027119  -0.078112  -0.105380   0.014812
  137  C 35  S   -0.000375   0.004137   0.046254  -0.020932   0.040645
  138  C 35  X    0.013247   0.020116  -0.001180  -0.016793  -0.016733
  139  C 35  Y   -0.006200   0.024861   0.108209  -0.056782   0.024867
  140  C 35  Z   -0.043158   0.025649   0.059817  -0.026434  -0.057893
  141  C 36  S   -0.042716   0.016226   0.020752  -0.010570  -0.136397
  142  C 36  X    0.012279   0.012498  -0.015840  -0.012806   0.014748
  143  C 36  Y   -0.127089   0.043641   0.071231  -0.023131  -0.246139
  144  C 36  Z    0.078378  -0.036040  -0.055281   0.021962   0.136508

                     81         82
                   -0.0421    -0.0421
                     A          A   
    1  C  1  S    0.152802   0.061794
    2  C  1  X    0.225095   0.112238
    3  C  1  Y   -0.135150  -0.036771
    4  C  1  Z   -0.114117  -0.044753
    5  C  2  S   -0.129982  -0.070852
    6  C  2  X   -0.188847  -0.142011
    7  C  2  Y   -0.006368  -0.024119
    8  C  2  Z    0.088032   0.123721
    9  C  3  S   -0.072149  -0.043090
   10  C  3  X   -0.084650  -0.058407
   11  C  3  Y    0.057297  -0.007058
   12  C  3  Z    0.026735   0.005082
   13  C  4  S    0.068750  -0.002737
   14  C  4  X    0.067542   0.099880
   15  C  4  Y    0.134702   0.042805
   16  C  4  Z   -0.002590  -0.077367
   17  C  5  S    0.066616  -0.017969
   18  C  5  X    0.114017  -0.127831
   19  C  5  Y   -0.030114  -0.059669
   20  C  5  Z   -0.023713  -0.073464
   21  C  6  S   -0.049660   0.069465
   22  C  6  X   -0.063773   0.144070
   23  C  6  Y   -0.079675   0.031355
   24  C  6  Z   -0.081602   0.093887
   25  C  7  S   -0.070892  -0.053411
   26  C  7  X   -0.128258  -0.061429
   27  C  7  Y   -0.051765  -0.102357
   28  C  7  Z    0.108824   0.063723
   29  C  8  S   -0.003196  -0.019716
   30  C  8  X    0.049192   0.010991
   31  C  8  Y    0.001024   0.089775
   32  C  8  Z   -0.008412  -0.085883
   33  C  9  S    0.053901  -0.000389
   34  C  9  X    0.058474  -0.010299
   35  C  9  Y   -0.041622   0.017718
   36  C  9  Z   -0.047041   0.042773
   37  C 10  S    0.040919  -0.021983
   38  C 10  X   -0.061292   0.011324
   39  C 10  Y   -0.088470   0.010488
   40  C 10  Z   -0.038580   0.063379
   41  C 11  S    0.014659   0.052205
   42  C 11  X   -0.019008   0.048932
   43  C 11  Y   -0.059614  -0.078758
   44  C 11  Z    0.065119   0.188869
   45  C 12  S   -0.037696  -0.021404
   46  C 12  X    0.048082  -0.010877
   47  C 12  Y    0.034249   0.026443
   48  C 12  Z   -0.190467  -0.135323
   49  C 13  S   -0.028577  -0.068269
   50  C 13  X    0.014258   0.095884
   51  C 13  Y   -0.006401   0.091504
   52  C 13  Z    0.027096  -0.051586
   53  C 14  S   -0.019518  -0.073931
   54  C 14  X   -0.002950  -0.030621
   55  C 14  Y   -0.010132  -0.116104
   56  C 14  Z   -0.187755  -0.157764
   57  C 15  S    0.064022  -0.026180
   58  C 15  X    0.096958  -0.051694
   59  C 15  Y    0.018902   0.051338
   60  C 15  Z    0.140502  -0.021999
   61  C 16  S    0.070587   0.015844
   62  C 16  X   -0.110306  -0.017681
   63  C 16  Y   -0.041350  -0.031188
   64  C 16  Z    0.134324  -0.020649
   65  C 17  S    0.055970   0.039359
   66  C 17  X   -0.022086   0.005376
   67  C 17  Y    0.110015   0.061084
   68  C 17  Z    0.090594   0.154846
   69  C 18  S   -0.098513   0.107824
   70  C 18  X   -0.063817   0.115985
   71  C 18  Y   -0.113884   0.156477
   72  C 18  Z   -0.041947   0.142528
   73  C 19  S   -0.078358   0.103724
   74  C 19  X    0.022181  -0.098633
   75  C 19  Y    0.156699  -0.093738
   76  C 19  Z    0.119067  -0.062190
   77  C 20  S   -0.004690  -0.158179
   78  C 20  X    0.015782   0.209605
   79  C 20  Y   -0.015754   0.128016
   80  C 20  Z   -0.025887   0.061312
   81  C 21  S    0.047590   0.153360
   82  C 21  X   -0.076888  -0.206120
   83  C 21  Y   -0.018835  -0.122088
   84  C 21  Z    0.045374   0.054011
   85  C 22  S    0.061739  -0.038811
   86  C 22  X   -0.074182   0.064981
   87  C 22  Y   -0.071168   0.024232
   88  C 22  Z   -0.133308   0.029685
   89  C 23  S    0.039890  -0.054871
   90  C 23  X    0.061265  -0.080827
   91  C 23  Y   -0.061830   0.047200
   92  C 23  Z   -0.034206   0.175122
   93  C 24  S   -0.132474   0.021504
   94  C 24  X   -0.101792  -0.016427
   95  C 24  Y    0.146571  -0.098811
   96  C 24  Z    0.096833  -0.083866
   97  C 25  S   -0.027774   0.035197
   98  C 25  X    0.043836  -0.039163
   99  C 25  Y    0.030675   0.012501
  100  C 25  Z    0.134328  -0.194977
  101  C 26  S    0.006724   0.077866
  102  C 26  X    0.029700   0.115795
  103  C 26  Y   -0.008111  -0.029845
  104  C 26  Z    0.124261  -0.215113
  105  C 27  S    0.069078   0.003635
  106  C 27  X    0.055358  -0.038534
  107  C 27  Y    0.094091   0.042180
  108  C 27  Z   -0.139385   0.030630
  109  C 28  S   -0.002930  -0.052030
  110  C 28  X   -0.043200   0.060430
  111  C 28  Y   -0.013659  -0.077454
  112  C 28  Z    0.001321   0.198860
  113  C 29  S   -0.005739   0.068558
  114  C 29  X   -0.038871  -0.111790
  115  C 29  Y    0.001980  -0.043373
  116  C 29  Z   -0.041272  -0.033497
  117  C 30  S    0.046352   0.010471
  118  C 30  X   -0.106618   0.017047
  119  C 30  Y   -0.009897  -0.002942
  120  C 30  Z    0.056652   0.044876
  121  C 31  S    0.051305  -0.014742
  122  C 31  X   -0.009748  -0.007208
  123  C 31  Y    0.073868  -0.002637
  124  C 31  Z    0.057814   0.022112
  125  C 32  S    0.002010   0.013145
  126  C 32  X   -0.002694  -0.081067
  127  C 32  Y    0.050118   0.012245
  128  C 32  Z   -0.019414  -0.077781
  129  C 33  S   -0.108075  -0.074456
  130  C 33  X    0.181066   0.076225
  131  C 33  Y   -0.042994   0.056434
  132  C 33  Z   -0.132467  -0.019569
  133  C 34  S   -0.131832   0.022411
  134  C 34  X    0.103118   0.065247
  135  C 34  Y   -0.163092   0.020314
  136  C 34  Z   -0.119146  -0.048259
  137  C 35  S    0.122402  -0.110638
  138  C 35  X   -0.012255  -0.020847
  139  C 35  Y    0.207791  -0.197262
  140  C 35  Z    0.092787  -0.077617
  141  C 36  S   -0.052120   0.070265
  142  C 36  X    0.018518   0.030197
  143  C 36  Y   -0.078122   0.088596
  144  C 36  Z   -0.024471   0.007788

     ----------------------------------------------------------------
     PROPERTY VALUES FOR THE RHF   SELF-CONSISTENT FIELD WAVEFUNCTION
     ----------------------------------------------------------------

                    -------------
                    MOPAC CHARGES
                    -------------
         ATOM NO.   TYPE          CHARGE        ATOM  ELECTRON DENSITY
           1         C             -0.0860          4.0860
           2         C              0.0399          3.9601
           3         C             -0.0479          4.0479
           4         C             -0.0130          4.0130
           5         C             -0.0117          4.0117
           6         C              0.0056          3.9944
           7         C              0.0067          3.9933
           8         C              0.0866          3.9134
           9         C             -0.0382          4.0382
          10         C              0.0126          3.9874
          11         C             -0.0103          4.0103
          12         C              0.0321          3.9679
          13         C              0.0107          3.9893
          14         C             -0.0056          4.0056
          15         C              0.0304          3.9696
          16         C             -0.0172          4.0172
          17         C             -0.0138          4.0138
          18         C              0.0407          3.9593
          19         C             -0.0017          4.0017
          20         C             -0.0306          4.0306
          21         C             -0.0309          4.0309
          22         C             -0.0172          4.0172
          23         C             -0.0134          4.0134
          24         C              0.0454          3.9546
          25         C              0.0322          3.9678
          26         C             -0.0054          4.0054
          27         C              0.0300          3.9700
          28         C             -0.0104          4.0104
          29         C              0.0102          3.9898
          30         C              0.0129          3.9871
          31         C             -0.0392          4.0392
          32         C              0.0875          3.9125
          33         C             -0.0019          4.0019
          34         C              0.0464          3.9536
          35         C             -0.0868          4.0868
          36         C             -0.0487          4.0487

          ---------------------
          ELECTROSTATIC MOMENTS
          ---------------------

 POINT   1           X           Y           Z (ANGS)      CHARGE
                 0.000000    0.000000    0.000000       -0.00 (A.U.)
         DX          DY          DZ         /D/  (DEBYE)
    -0.260038   -0.158643   -0.003318    0.304628
 ...... END OF PROPERTY EVALUATION ......
 CPU     0: STEP CPU TIME=     0.05 TOTAL CPU TIME=          0.6 (      0.0 MIN)
 TOTAL WALL CLOCK TIME=          0.8 SECONDS, CPU UTILIZATION IS    76.98%
  $VIB   
          IVIB=   0 IATOM=   0 ICOORD=   0 E=     -155.5557745786
 -3.250751034E-05 1.160858054E-04 5.503343093E-05 2.251845714E-04-2.556559671E-04
 -2.269745260E-04-9.938437024E-05-4.858144415E-05-7.000520273E-05-1.292714005E-04
 -3.564802970E-05 4.886331852E-05-4.444430004E-06 8.211721996E-05 1.828567813E-04
 -2.018586717E-04 8.493865966E-05-1.124025367E-04-1.590047720E-04-2.378626962E-05
  2.332825460E-04 1.812288551E-04 1.291987739E-04 1.530082994E-04 3.298588939E-05
 -4.612179452E-04-1.782579034E-04 2.352067312E-04 1.858359409E-04-8.305797392E-05
 -1.900931797E-04 1.627497137E-04-2.528516273E-04 7.606956509E-05-1.105272912E-04
  3.671728551E-04-2.535638255E-04-6.110737891E-05-1.355638240E-04 8.726674009E-06
 -1.072859217E-04-4.523176631E-04 4.116773123E-04 1.538143917E-04 4.335565243E-04
  1.654097992E-04 1.796720702E-04-3.100175184E-04-1.901922293E-04 2.032004371E-04
  1.996098465E-04-9.476699545E-05 1.336427741E-04 4.795094836E-05-4.087609477E-05
  1.061754274E-04-9.540198766E-05 1.040568848E-04 6.591570487E-06 2.317402604E-04
  1.152157242E-04 1.081694313E-04-1.689293178E-04-1.384081465E-04-3.272596413E-04
  1.800100972E-05 3.332308294E-04-5.058898932E-04-4.346756108E-04-4.084421375E-04
  3.924832354E-04 9.029748419E-05 1.549893503E-04 2.853877688E-04 3.768112319E-04
 -2.477543024E-04 2.821584542E-04 4.486933218E-04 2.780810776E-04 1.115270278E-05
 -2.548093560E-04-2.449467927E-04-6.081380888E-05-1.971695353E-04-3.141896085E-04
 -1.382994753E-04-1.982193833E-04 2.737652003E-04-8.088103882E-05 1.556191593E-04
  5.809312674E-05 2.980900448E-04 4.531894122E-05 4.775648048E-05-1.248357920E-04
  2.385974759E-04-1.999171089E-04-9.666817346E-05-4.892884956E-05 1.988364962E-04
 -1.043429807E-04-1.961909543E-04-9.463499099E-05-2.493640853E-04-1.097963902E-04
  1.437419989E-04-1.292992855E-04 1.991567256E-04
 -2.600384948E-01-1.586426393E-01-3.318386051E-03
 ......END OF GEOMETRY SEARCH......
 CPU     0: STEP CPU TIME=     0.00 TOTAL CPU TIME=          0.6 (      0.0 MIN)
 TOTAL WALL CLOCK TIME=          0.8 SECONDS, CPU UTILIZATION IS    75.37%
                580000  WORDS OF DYNAMIC MEMORY USED
 EXECUTION OF GAMESS TERMINATED NORMALLY 21:10:09 27-MAY-2023    
 DDI: 263640 bytes (0.3 MB / 0 MWords) used by master data server.

 ----------------------------------------
 CPU timing information for all processes
 ========================================
 0: 0.437500 + 0.140625 = 0.578125
 1: 0.515625 + 0.109375 = 0.625000
 2: 0.234375 + 0.281250 = 0.515625
 3: 0.296875 + 0.265625 = 0.562500
 ----------------------------------------
           Disk usage (in bytes)       
 ========================================
 ----------------------------------------
            Local date and time          
 ========================================
27.05.2023 - 21:10:09,24                          
