          *******************************************************
          *                                                     *
          *          GAMESS VERSION = 30 SEP 2022 (R2)          *
          *                                                     *
          *              doi.org/10.1063/5.0005188              *
          *                                                     *
          *************** 64 BIT WINDOWS VERSION ****************

  GAMESS HAS BEEN MADE POSSIBLE WITH IMPORTANT CONTRIBUTIONS FROM
  THE FOLLOWING INDIVIDUALS (IN ALPHABETICAL ORDER):

     IVANA ADAMOVIC, CHRISTINE AIKENS, TOMOKO AKAMA,
     MELISA ALKAN, YURI ALEXEEV, YURIKO AOKI, POOJA ARORA,
     TOSHIO ASADA, ANDREY ASADCHEV, KIM K. BALDRIDGE,
     PRADIPTA BANDYOPADHYAY, TAYLOR A. BARNES, MARIA BARYSZ,
     ROB BELL, JONATHAN BENTZ, COLLEEN BERTONI,
     JERRY A. BOATZ, BRETT BODE, KURT BRORSEN, KURT R. BRORSEN,
     LAIMUTIS BYTAUTAS, CALEB CARLIN, LAURA CARRINGTON,
     GALINA CHABAN, BENOIT CHAMPAGNE, WEI CHEN, MAHITO CHIBA,
     DAN CHIPMAN, CHEOL HO CHOI, TANNER CULPITT,
     DIPAYAN DATTA, PAUL DAY, ALBERT DEFUSCO,
     NUWAN DESILVA, J. EMILIANO DEUSTUA,
     TIM DUDLEY, MICHEL DUPUIS, STEVEN T. ELBERT,
     DMITRI FEDOROV, KATHERINE FERRERAS, MICHAEL FILATOV,
     ALEX FINDLATER,GRAHAM FLETCHER, MARK FREITAG,
     CHRISTIAN FRIEDL, DAVID GARMER, 
     IGOR S. GERASIMOV, KURT GLAESEMANN,
     MARK S. GORDON, JEFFREY GOUR, FENG LONG GU,
     EMILIE B. GUIDEZ, ANASTASIA GUNINA, SHARON HAMMES-SCHIFFER,
     MASATAKE HARUTA, KIMIHIKO HIRAO, YASUHIRO IKABATA,
     TZVETELIN IORDANOV, STEPHAN IRLE, KAZUYA ISHIMURA,
     JOE IVANIC, FRANK JENSEN, JAN H. JENSEN, VISVALDAS KAIRYS,
     MUNEAKI KAMIYA, MICHIO KATOUDA, NAOAKI KAWAKAMI, DAN KEMP,
     BERNARD KIRTMAN, KAZUO KITAURA, MARIUSZ KLOBUKOWSKI,
     MASATO KOBAYASHI, KONSTANTIN KOMAROV, PRAKASHAN KORAMBATH,
     JACEK KORCHOWIEC, SHIRO KOSEKI, KAROL KOWALSKI,
     JIMMY KROMANN, STANISLAW KUCHARSKI, HENRY KURTZ,
     SAROM SOK LEANG, SEUNGHOON LEE, HUI LI, SHUHUA LI, WEI LI,
     JESSE LUTZ, ALEKSANDR O. LYKHIN, MARCIN MAKOWSKI,
     JOANI MATO, NIKITA MATSUNAGA, BENEDETTA MENNUCCI,
     GRANT MERRILL, NORIYUKI MINEZAWA, VLADIMIR MIRONOV,
     EISAKU MIYOSHI, JOHN A. MONTGOMERY JR., HIROTOSHI MORI,
     JONATHAN MULLIN, MONIKA MUSIAL, SHIGERU NAGASE,
     TAKESHI NAGATA, HIROMI NAKAI, TAKAHITO NAKAJIMA,
     YUYA NAKAJIMA, HARUYUKI NAKANO, HIROYA NAKATA, SEAN NEDD,
     HEATHER NETZLOFF, KIET A. NGUYEN, YOSHIO NISHIMOTO,
     BOSILJKA NJEGIC, RYAN OLSON, MIKE PAK, ROBERTO PEVERATI,
     BUU PHAM, PIOTR PIECUCH, ANNA POMOGAEVA, DAVID POOLE,
     SPENCER PRUITT, OLIVIER QUINET, LUKE ROSKOP,
     KLAUS RUEDENBERG, ANDREW SAND, TOSAPORN SATTASATHUCHANA,
     NOZOMI SAWADA, MICHAEL W. SCHMIDT, PATRICK E. SCHNEIDER,
     JUNJI SEINO, PRACHI SHARMA, JUN SHEN, JIM SHOEMAKER,
     YINAN SHU, DEJUN SI, JONATHAN SKONE, LYUDMILA SLIPCHENKO,
     TONY SMITH, JIE SONG, MARK SPACKMAN, CASPER STEINMANN,
     WALT STEVENS, PEIFENG SU, SHUJUN SU, CHET SWALINA,
     CHINAMI TAKASHIMA, TETSUYA TAKETSUGU, ZHEN TAO,
     NANDUN THELLAMUREGE, SEIKEN TOKURA, JACOPO TOMASI,
     TSUGUKI TOUMA, TAKAO TSUNEDA, HIROAKI UMEDA,
     JORGE LUIS GALVEZ VALLEJO, YALI WANG, SIMON WEBB,
     AARON WEST, THERESA L. WINDUS, MARTA WLOCH,
     PENG XU, KIYOSHI YAGI, SUSUMU YANAGISAWA, YANG YANG,
     SOOHAENG YOO, TAKESHI YOSHIKAWA, FEDERICO ZAHARIEV,
     TOBY ZENG

  WHO ARE SUPPORTED BY THEIR INSTITUTION/UNIVERSITY/COMPANY/GROUP
  (IN ALPHABETICAL ORDER):

     EP ANALYTICS,
     FACULTES UNIVERSITAIRES NOTRE-DAME DE LA PAIX,
     INSTITUTE FOR MOLECULAR SCIENCE, IOWA STATE UNIVERSITY,
     JACKSON STATE UNIVERSITY, JOHANNES KEPLER UNIVERSITY LINZ,
     KYUNGPOOK NATIONAL UNIVERSITY
     KYUSHU UNIVERSITY, MICHIGAN STATE UNIVERSITY,
     MIE UNIVERSITY, THE MOLECULAR SCIENCES SOFTWARE INSTITUTE,
     MOSCOW STATE UNIVERSITY,
     N. COPERNICUS UNIVERSITY, NAGOYA UNIVERSITY,
     NANJING UNIVERSITY, NAT. INST. OF ADVANCED INDUSTRIAL
     SCIENCE AND TECHNOLOGY, NATIONAL INST. OF STANDARDS AND
     TECHNOLOGY, NESMEYANOV INSTITUTE OF ORGANOELEMENT COMPOUNDS
     OF RUSSIAN ACADEMY OF SCIENCES, OSAKA PREFECTURE UNIVERSITY,
     PENNSYLVANIA STATE UNIVERSITY, TOKYO INSTITUTE OF TECHNOLOGY,
     UNIVERSITY OF AARHUS, UNIVERSITY OF ALBERTA,
     UNIVERSITY OF CALIFORNIA AT SANTA BARBARA,
     UNIVERSITY OF COPENHAGEN, UNIVERSITY OF IOWA,
     UNIVERSITY OF MEMPHIS, UNIVERSITY OF MINNESOTA,
     UNIVERSITY OF NEBRASKA, UNIVERSITY OF NEW ENGLAND,
     UNIVERSITY OF NOTRE DAME, UNIVERSITY OF PISA,
     UNIVERSITY OF SILESIA, UNIVERSITY OF TOKYO,
     UNIVERSITY OF ZURICH, WASEDA UNIVERSITY,
     YALE UNIVERSITY

  GAMESS SOFTWARE MANAGEMENT TEAM FOR THIS RELEASE:
     MARK S. GORDON (TEAM LEAD),
     BRETT BODE (SENIOR ADVISOR),
     GIUSEPPE BARCA,
     COLLEEN BERTONI,
     KRISTOPHER KEIPERT (ADVISOR),
     SAROM S. LEANG (DEVELOPMENT LEAD),
     BUU PHAM,
     JACKSON HAYES (WEBSITE ADMINISTRATOR),
     PENG XU


 PARALLEL VERSION RUNNING ON        2 PROCESSORS IN        2 NODES.

 EXECUTION OF GAMESS BEGUN 21:10:03 27-MAY-2023    

            ECHO OF THE FIRST FEW INPUT CARDS -
 INPUT CARD>! (Energy/Geometry) PM3                                                         
 INPUT CARD> $CONTRL                                                                        
 INPUT CARD>COORD=UNIQUE                                                                    
 INPUT CARD>ICHARG=0                                                                        
 INPUT CARD>MAXIT=200                                                                       
 INPUT CARD>MULT=1                                                                          
 INPUT CARD>RUNTYP=OPTIMIZE                                                                 
 INPUT CARD>SCFTYP=RHF                                                                      
 INPUT CARD>UNITS=ANGS                                                                      
 INPUT CARD>! DFTTYP=PBE                                                                    
 INPUT CARD> $END                                                                           
 INPUT CARD> $DFT                                                                           
 INPUT CARD>METHOD=GRID                                                                     
 INPUT CARD> $END                                                                           
 INPUT CARD> $BASIS                                                                         
 INPUT CARD>! EXTFIL=.T.                                                                    
 INPUT CARD>! GBASIS=GEGSSBAS                                                               
 INPUT CARD>! NGAUSS=6                                                                      
 INPUT CARD>GBASIS=PM3                                                                      
 INPUT CARD>! NDFUNC=1                                                                      
 INPUT CARD>! NPFUNC=1                                                                      
 INPUT CARD> $END                                                                           
 INPUT CARD> $SCF                                                                           
 INPUT CARD>DAMP=.F.                                                                        
 INPUT CARD>DEM=.F.                                                                         
 INPUT CARD>DIIS=.F.                                                                        
 INPUT CARD>DIRSCF=.T.                                                                      
 INPUT CARD>EXTRAP=.T.                                                                      
 INPUT CARD>RSTRCT=.F.                                                                      
 INPUT CARD>SHIFT=.F.                                                                       
 INPUT CARD>SOSCF=.T.                                                                       
 INPUT CARD> $END                                                                           
 INPUT CARD> $STATPT                                                                        
 INPUT CARD>METHOD=QA                                                                       
 INPUT CARD>NSTEP=100                                                                       
 INPUT CARD>OPTTOL=0.001                                                                    
 INPUT CARD> $END                                                                           
 INPUT CARD> $GUESS                                                                         
 INPUT CARD>GUESS=HUCKEL                                                                    
 INPUT CARD> $END                                                                           
 INPUT CARD> $SYSTEM                                                                        
 INPUT CARD>MWORDS=10                                                                       
 INPUT CARD> $END                                                                           
 INPUT CARD> $DATA                                                                          
 INPUT CARD>C36 FULLERENE                                                                   
 INPUT CARD>C1                                                                              
 INPUT CARD>C	6.0	1.7098	-2.0822	0.589                                                      
 INPUT CARD>C	6.0	2.6829	-1.3954	-0.0684                                                    
 INPUT CARD>C	6.0	1.3942	-1.2966	1.6686                                                     
 INPUT CARD>C	6.0	-0.9518	-1.7455	1.4248                                                    
     10000000 WORDS OF MEMORY AVAILABLE

     BASIS OPTIONS
     -------------
     GBASIS=PM3          IGAUSS=       0      POLAR=NONE    
     NDFUNC=       0     NFFUNC=       0     DIFFSP=       F
     NPFUNC=       0      DIFFS=       F     BASNAM=        


     RUN TITLE
     ---------
 C36 FULLERENE                                                                   

 THE POINT GROUP OF THE MOLECULE IS C1      
 THE ORDER OF THE PRINCIPAL AXIS IS     0

 ATOM      ATOMIC                      COORDINATES (BOHR)
           CHARGE         X                   Y                   Z
 C           6.0     3.2310534938       -3.9347874516        1.1130486068
 C           6.0     5.0699458525       -2.6369236433       -0.1292572576
 C           6.0     2.6346559721       -2.4502187157        3.1531967831
 C           6.0    -1.7986411951       -3.2985167116        2.6924815873
 C           6.0     0.1929410233       -1.9828894789        3.8516395082
 C           6.0     5.6559498813       -0.4091256763        1.0712856624
 C           6.0     5.3278934498        1.4862694893       -0.6874823143
 C           6.0     3.8397342345        3.5451259530       -0.1623274623
 C           6.0     4.0421238877       -0.2732543778        3.1261737015
 C           6.0     2.4027865934        1.7249418816        3.6643676628
 C           6.0     2.4196051547        3.8788515624        2.0645256416
 C           6.0     2.1635472833        3.8282069059       -2.1442720783
 C           6.0     2.3317328963        1.7674607163       -3.7284293738
 C           6.0     0.0253223282        0.5686185497       -4.2981817591
 C           6.0    -0.0706757519        4.6821740798       -1.2271880564
 C           6.0    -2.3948497442        3.7473266337       -1.9624804382
 C           6.0    -2.3555434437        1.6240305138       -3.5940698560
 C           6.0     0.0782346559        4.8307065424        1.3677836699
 C           6.0     4.1664678577       -2.1858460500       -2.4967059750
 C           6.0     1.8320893451       -3.3701373265       -2.8017077494
 C           6.0     4.3662118946        0.3599928007       -2.8893910352
 C           6.0    -0.1986102013       -2.0832339289       -3.9296851915
 C           6.0    -2.6405141226       -2.5513190560       -3.1972273986
 C           6.0    -4.0198251211       -0.3386388970       -3.0776077436
 C           6.0    -1.2604472338       -4.6385214095        0.3860710193
 C           6.0     1.2530773025       -4.6343640123       -0.4688410176
 C           6.0    -5.0990476327       -2.6883241901        0.0719985601
 C           6.0    -3.3089102045       -4.0234156005       -1.1604807291
 C           6.0    -5.3690894763        1.5085682560        0.6736873146
 C           6.0    -5.6899649490       -0.3998660190       -1.0531442930
 C           6.0    -3.8463482754        3.5802748563        0.2486879400
 C           6.0    -0.0075589040        0.6591364245        4.3121657314
 C           6.0    -2.3253078279        1.8462622900        3.7367441681
 C           6.0    -2.1945387895        3.9850541629        2.2387583777
 C           6.0    -4.1309410092       -2.1297211882        2.3993850866
 C           6.0    -4.3278504571        0.4100705393        2.8383684336

          INTERNUCLEAR DISTANCES (ANGS.)
          ------------------------------

                1 C          2 C          3 C          4 C          5 C     

   1 C       0.0000000    1.3604384 *  1.3719719 *  2.8099899 *  2.3982832 *
   2 C       1.3604384 *  0.0000000    2.1651046 *  3.9450298    3.3493398  
   3 C       1.3719719 *  2.1651046 *  0.0000000    2.4009718 *  1.3664860 *
   4 C       2.8099899 *  3.9450298    2.4009718 *  0.0000000    1.4041578 *
   5 C       2.3982832 *  3.3493398    1.3664860 *  1.4041578 *  0.0000000  
   6 C       2.2644927 *  1.3746175 *  2.2218282 *  4.3168600    3.3489674  
   7 C       3.2200124    2.2060329 *  3.2405479    4.8818094    4.0649090  
   8 C       4.0282236    3.3355907    3.6810762    4.9294972    4.0979640  
   9 C       2.2524144 *  2.1972763 *  1.3718730 *  3.4883514    2.2615974 *
  10 C       3.3143479    3.3689603    2.2292765 *  3.5034449    2.2862969 *
  11 C       4.1874178    3.8991536    3.4002915    4.4179977    3.4502932  
  12 C       4.4906478    3.8996217    4.3541914    5.0169607    4.5399302  
  13 C       3.9869325    3.3405486    4.2741460    4.8486099    4.6162034  
  14 C       4.0934791    3.8562341    4.4728797    4.3363792    4.5199877  
  15 C       5.0377605    4.7684900    4.6548838    4.7931046    4.4364832  
  16 C       5.2950667    5.2876044    5.0167468    4.4798548    4.5316865  
  17 C       4.8577055    4.8873336    4.9366084    4.2354793    4.5810747  
  18 C       4.9312688    4.8188210    4.1913665    4.4702719    3.8381875  
  19 C       2.1795502 *  1.3620078 *  3.1008948    4.2250828    3.9646501  
  20 C       2.2201018 *  2.2552705 *  3.2167384    3.4850832    3.6996376  
  21 C       3.1641634    2.1879472 *  3.6435859    4.8078719    4.3748200  
  22 C       3.3726492    3.4501183    4.0415180    3.6620482    4.1232517  
  23 C       3.9233335    4.3915642    4.3690153    3.1731105    4.0314175  
  24 C       4.8230413    5.2010026    4.9518046    3.6274113    4.3786156  
  25 C       2.4363608 *  3.5239325    2.7809502 *  1.4399841 *  2.4350713 *
  26 C       1.3904551 *  2.2867298 *  2.3545955 *  2.4302683 *  2.7405434 *
  27 C       4.4910921    5.3823225    4.4071490    2.2533228 *  3.4615016  
  28 C       3.6642579    4.5272037    3.9744256    2.2232820 *  3.4109592  
  29 C       5.3910052    5.9589043    4.9039602    3.3439521    3.8606678  
  30 C       5.2056797    5.8361719    5.0534783    3.2437439    4.1388106  
  31 C       5.4818497    5.7555586    4.9303431    4.0120921    4.1073808  
  32 C       3.4223942    3.9731065    2.2446473 *  2.4533727 *  1.4231411 *
  33 C       4.4644959    5.0128115    3.4862106    2.7919611 *  2.4259866 *
  34 C       5.1149345    5.3504720    4.2850308    3.8674496    3.5068843  
  35 C       4.0685399    5.0565539    3.6063441    1.3891897 *  2.4149599 *
  36 C       4.7031787    5.4587282    3.9866708    2.3766953 *  2.7593705 *

                6 C          7 C          8 C          9 C         10 C     

   1 C       2.2644927 *  3.2200124    4.0282236    2.2524144 *  3.3143479  
   2 C       1.3746175 *  2.2060329 *  3.3355907    2.1972763 *  3.3689603  
   3 C       2.2218282 *  3.2405479    3.6810762    1.3718730 *  2.2292765 *
   4 C       4.3168600    4.8818094    4.9294972    3.4883514    3.5034449  
   5 C       3.3489674    4.0649090    4.0979640    2.2615974 *  2.2862969 *
   6 C       0.0000000    1.3792565 *  2.3934112 *  1.3845304 *  2.4742299 *
   7 C       1.3792565 *  0.0000000    1.3727326 *  2.3243535 *  2.7776419 *
   8 C       2.3934112 *  1.3727326 *  0.0000000    2.6688182 *  2.3678233 *
   9 C       1.3845304 *  2.3243535 *  2.6688182 *  0.0000000    1.3970548 *
  10 C       2.4742299 *  2.7776419 *  2.3678233 *  1.3970548 *  0.0000000  
  11 C       2.8910325 *  2.4682666 *  1.4087464 *  2.4249744 *  1.4198432 *
  12 C       3.3673172    2.2212838 *  1.3817346 *  3.6711568    3.2715505  
  13 C       3.2972971    2.2639515 *  2.2545214 *  3.8913616    3.9123454  
  14 C       4.1496112    3.4293174    3.3682714    4.4891107    4.4397818  
  15 C       4.2333702    3.3321211    2.2274599 *  4.1134180    3.2958252  
  16 C       5.0562106    4.3113744    3.4356392    4.8353628    4.0567148  
  17 C       5.0225387    4.3477131    3.8831995    5.0116050    4.5930879  
  18 C       4.0527744    3.4687678    2.2539992 *  3.5440961    2.3856220 *
  19 C       2.2517009 *  2.2517491 *  3.2791965    3.1436088    3.9728372  
  20 C       3.2787464    3.3583075    4.0584077    3.7274036    4.3667756  
  21 C       2.2414843 *  1.4042387 *  2.2363063 *  3.2054802    3.6917416  
  22 C       4.1697093    3.8812717    4.1727780    4.4603395    4.7016172  
  23 C       5.0657636    4.9101393    4.9745723    5.0155461    5.0425560  
  24 C       5.5711812    5.1962628    4.8889552    5.3832232    5.0469901  
  25 C       4.3053653    4.7940016    5.1110051    3.9130852    4.2551964  
  26 C       3.3304516    3.8927483    4.5425729    3.3351683    4.0593799  
  27 C       5.8416780    5.9570680    5.7680959    5.2578377    4.9826907  
  28 C       5.2496034    5.4269632    5.5344515    4.9209734    4.9907406  
  29 C       5.9255360    5.7062565    5.0104150    5.2321828    4.4081781  
  30 C       6.1083439    5.9183790    5.4782417    5.6051908    5.0829219  
  31 C       5.4709264    5.0042372    4.0731538    4.8890252    3.8944287  
  32 C       3.4989710    3.8939565    3.4761625    2.2868700 *  1.4361435 *
  33 C       4.6099788    4.6817943    3.9634154    3.5659375    2.5031166 *
  34 C       4.8007193    4.4712752    3.4445822    4.0237192    2.8139032 *
  35 C       5.3051842    5.6021276    5.3522276    4.4518145    4.0697895  
  36 C       5.3828001    5.4693283    4.8943085    4.4465450    3.6552566  

               11 C         12 C         13 C         14 C         15 C     

   1 C       4.1874178    4.4906478    3.9869325    4.0934791    5.0377605  
   2 C       3.8991536    3.8996217    3.3405486    3.8562341    4.7684900  
   3 C       3.4002915    4.3541914    4.2741460    4.4728797    4.6548838  
   4 C       4.4179977    5.0169607    4.8486099    4.3363792    4.7931046  
   5 C       3.4502932    4.5399302    4.6162034    4.5199877    4.4364832  
   6 C       2.8910325 *  3.3673172    3.2972971    4.1496112    4.2333702  
   7 C       2.4682666 *  2.2212838 *  2.2639515 *  3.4293174    3.3321211  
   8 C       1.4087464 *  1.3817346 *  2.2545214 *  3.3682714    2.2274599 *
   9 C       2.4249744 *  3.6711568    3.8913616    4.4891107    4.1134180  
  10 C       1.4198432 *  3.2715505    3.9123454    4.4397818    3.2958252  
  11 C       0.0000000    2.2314790 *  3.2630985    4.0013036    2.2252017 *
  12 C       2.2314790 *  0.0000000    1.3783534 *  2.3568446 *  1.3555674 *
  13 C       3.2630985    1.3783534 *  0.0000000    1.4081853 *  2.3973148 *
  14 C       4.0013036    2.3568446 *  1.4081853 *  0.0000000    2.7169816 *
  15 C       2.2252017 *  1.3555674 *  2.3973148 *  2.7169816 *  0.0000000  
  16 C       3.3221650    2.4144969 *  2.8682690 *  2.4489485 *  1.3815864 *
  17 C       4.0957760    2.7690935 *  2.4825793 *  1.4276208 *  2.3768832 *
  18 C       1.3873624 *  2.2255707 *  3.3648815    3.7519883    1.3777030 *
  19 C       4.1206880    3.3595352    2.3966548 *  2.7992164 *  4.3229202  
  20 C       4.6306257    3.8290735    2.7751989 *  2.4260130 *  4.4570218  
  21 C       3.3765048    2.2096203 *  1.3823641 *  2.4175663 *  3.3937611  
  22 C       4.6835050    3.4986829    2.4405910 *  1.4217307 *  3.8557600  
  23 C       5.1479440    4.2626228    3.4964673    2.2483990 *  4.1938273  
  24 C       4.8986788    3.9765061    3.5577682    2.2868868 *  3.5192633  
  25 C       4.9896010    5.0149663    4.4548264    3.7683118    5.0450751  
  26 C       4.7406005    4.5904756    3.8441649    3.4798086    4.9957610  
  27 C       5.3869127    5.2950079    5.0066368    3.9587735    4.7713085  
  28 C       5.4395298    5.0912135    4.4885170    3.4314626    4.9153105  
  29 C       4.3706465    4.4293822    4.6959322    3.9138611    3.4195780  
  30 C       5.1248957    4.7550872    4.6193898    3.5154555    4.0103758  
  31 C       3.4558389    3.4256441    4.0047372    3.5393189    2.2230543 *
  32 C       2.4428037 *  3.9756076    4.4699611    4.5566850    3.6229616  
  33 C       2.8713380 *  4.0531066    4.6562503    4.4814118    3.2520250  
  34 C       2.4440864 *  3.2718594    4.1334192    4.0760872    2.1824668 *
  35 C       4.7071419    5.1784343    5.1443076    4.4088108    4.6144652  
  36 C       4.0356291    4.6929582    5.0010860    4.4244281    3.8489472  

               16 C         17 C         18 C         19 C         20 C     

   1 C       5.2950667    4.8577055    4.9312688    2.1795502 *  2.2201018 *
   2 C       5.2876044    4.8873336    4.8188210    1.3620078 *  2.2552705 *
   3 C       5.0167468    4.9366084    4.1913665    3.1008948    3.2167384  
   4 C       4.4798548    4.2354793    4.4702719    4.2250828    3.4850832  
   5 C       4.5316865    4.5810747    3.8381875    3.9646501    3.6996376  
   6 C       5.0562106    5.0225387    4.0527744    2.2517009 *  3.2787464  
   7 C       4.3113744    4.3477131    3.4687678    2.2517491 *  3.3583075  
   8 C       3.4356392    3.8831995    2.2539992 *  3.2791965    4.0584077  
   9 C       4.8353628    5.0116050    3.5440961    3.1436088    3.7274036  
  10 C       4.0567148    4.5930879    2.3856220 *  3.9728372    4.3667756  
  11 C       3.3221650    4.0957760    1.3873624 *  4.1206880    4.6306257  
  12 C       2.4144969 *  2.7690935 *  2.2255707 *  3.3595352    3.8290735  
  13 C       2.8682690 *  2.4825793 *  3.3648815    2.3966548 *  2.7751989 *
  14 C       2.4489485 *  1.4276208 *  3.7519883    2.7992164 *  2.4260130 *
  15 C       1.3815864 *  2.3768832 *  1.3777030 *  4.3229202    4.4570218  
  16 C       0.0000000    1.4171694 *  2.2687155 *  4.6896816    4.4029840  
  17 C       1.4171694 *  0.0000000    3.3811916    4.0389780    3.4743144  
  18 C       2.2687155 *  3.3811916    0.0000000    4.7590644    4.9560636  
  19 C       4.6896816    4.0389780    4.7590644    0.0000000    1.3945497 *
  20 C       4.4029840    3.4743144    4.9560636    1.3945497 *  0.0000000  
  21 C       4.0316621    3.6385066    3.9775536    1.3672239 *  2.3867792 *
  22 C       3.4574677    2.2766192 *  4.6115116    2.4317906 *  1.4052814 *
  23 C       3.3990274    2.2245743 *  4.8130474    3.6262855    2.4152221 *
  24 C       2.4005739 *  1.3888900 *  4.2094622    4.4515419    3.4906052  
  25 C       4.6472794    3.9691932    5.0873205    3.5012755    2.4442327 *
  26 C       4.9014232    4.1652906    5.1398615    2.2819336 *  1.4371612 *
  27 C       3.8477188    3.3284902    4.8793223    5.0949768    3.9869113  
  28 C       4.1621446    3.2930353    5.1918828    4.1344777    2.8766162 *
  29 C       2.4138559 *  2.7653520 *  3.3963003    5.6655819    4.9567024  
  30 C       2.8439958 *  2.4634225 *  4.3150473    5.3554950    4.3784833  
  31 C       1.4024715 *  2.4143580 *  2.2586824 *  5.4222095    5.0162486  
  32 C       3.9104466    4.3941667    2.7023680 *  4.4863858    4.4345732  
  33 C       3.1794721    3.8811151    2.3839948 *  5.2186898    4.9428138  
  34 C       2.2292779 *  3.3309697    1.3635147 *  5.3172976    5.1772598  
  35 C       3.9804393    3.8584313    4.3388958    5.0983105    4.2383011  
  36 C       3.2587146    3.6178063    3.3932696    5.4829312    4.8512969  

               21 C         22 C         23 C         24 C         25 C     

   1 C       3.1641634    3.3726492    3.9233335    4.8230413    2.4363608 *
   2 C       2.1879472 *  3.4501183    4.3915642    5.2010026    3.5239325  
   3 C       3.6435859    4.0415180    4.3690153    4.9518046    2.7809502 *
   4 C       4.8078719    3.6620482    3.1731105    3.6274113    1.4399841 *
   5 C       4.3748200    4.1232517    4.0314175    4.3786156    2.4350713 *
   6 C       2.2414843 *  4.1697093    5.0657636    5.5711812    4.3053653  
   7 C       1.4042387 *  3.8812717    4.9101393    5.1962628    4.7940016  
   8 C       2.2363063 *  4.1727780    4.9745723    4.8889552    5.1110051  
   9 C       3.2054802    4.4603395    5.0155461    5.3832232    3.9130852  
  10 C       3.6917416    4.7016172    5.0425560    5.0469901    4.2551964  
  11 C       3.3765048    4.6835050    5.1479440    4.8986788    4.9896010  
  12 C       2.2096203 *  3.4986829    4.2626228    3.9765061    5.0149663  
  13 C       1.3823641 *  2.4405910 *  3.4964673    3.5577682    4.4548264  
  14 C       2.4175663 *  1.4217307 *  2.2483990 *  2.2868868 *  3.7683118  
  15 C       3.3937611    3.8557600    4.1938273    3.5192633    5.0450751  
  16 C       4.0316621    3.4574677    3.3990274    2.4005739 *  4.6472794  
  17 C       3.6385066    2.2766192 *  2.2245743 *  1.3888900 *  3.9691932  
  18 C       3.9775536    4.6115116    4.8130474    4.2094622    5.0873205  
  19 C       1.3672239 *  2.4317906 *  3.6262855    4.4515419    3.5012755  
  20 C       2.3867792 *  1.4052814 *  2.4152221 *  3.4906052    2.4442327 *
  21 C       0.0000000    2.7945955 *  4.0184283    4.4541867    4.3435457  
  22 C       2.7945955 *  0.0000000    1.3716304 *  2.2681485 *  2.7129170 *
  23 C       4.0184283    1.3716304 *  0.0000000    1.3812196 *  2.3127544 *
  24 C       4.4541867    2.2681485 *  1.3812196 *  0.0000000    3.2663667  
  25 C       4.3435457    2.7129170 *  2.3127544 *  3.2663667    0.0000000  
  26 C       3.3674251    2.4013865 *  2.7467930 *  3.8547364    1.4049330 *
  27 C       5.4905347    3.3632490    2.1658156 *  2.1564062 *  2.2844750 *
  28 C       4.7658544    2.4311513 *  1.3760805 *  2.2299880 *  1.3967050 *
  29 C       5.5194695    4.1271055    3.3009714    2.3250644 *  3.9155675  
  30 C       5.4244122    3.3992458    2.2776143 *  1.3891853 *  3.3324795  
  31 C       4.9546338    4.1948814    3.7762947    2.7216498 *  4.5599720  
  32 C       4.4614939    4.5976094    4.5407744    4.4809343    3.5517661  
  33 C       5.0450079    4.6956221    4.3482156    3.8915428    3.9034977  
  34 C       4.8059794    4.6991878    4.5049431    3.7526742    4.6936272  
  35 C       5.4577505    3.9430814    3.0729295    3.0499058    2.2814381 *
  36 C       5.5094558    4.3980246    3.6679790    3.1597784    3.3847083  

               26 C         27 C         28 C         29 C         30 C     

   1 C       1.3904551 *  4.4910921    3.6642579    5.3910052    5.2056797  
   2 C       2.2867298 *  5.3823225    4.5272037    5.9589043    5.8361719  
   3 C       2.3545955 *  4.4071490    3.9744256    4.9039602    5.0534783  
   4 C       2.4302683 *  2.2533228 *  2.2232820 *  3.3439521    3.2437439  
   5 C       2.7405434 *  3.4615016    3.4109592    3.8606678    4.1388106  
   6 C       3.3304516    5.8416780    5.2496034    5.9255360    6.1083439  
   7 C       3.8927483    5.9570680    5.4269632    5.7062565    5.9183790  
   8 C       4.5425729    5.7680959    5.5344515    5.0104150    5.4782417  
   9 C       3.3351683    5.2578377    4.9209734    5.2321828    5.6051908  
  10 C       4.0593799    4.9826907    4.9907406    4.4081781    5.0829219  
  11 C       4.7406005    5.3869127    5.4395298    4.3706465    5.1248957  
  12 C       4.5904756    5.2950079    5.0912135    4.4293822    4.7550872  
  13 C       3.8441649    5.0066368    4.4885170    4.6959322    4.6193898  
  14 C       3.4798086    3.9587735    3.4314626    3.9138611    3.5154555  
  15 C       4.9957610    4.7713085    4.9153105    3.4195780    4.0103758  
  16 C       4.9014232    3.8477188    4.1621446    2.4138559 *  2.8439958 *
  17 C       4.1652906    3.3284902    3.2930353    2.7653520 *  2.4634225 *
  18 C       5.1398615    4.8793223    5.1918828    3.3963003    4.3150473  
  19 C       2.2819336 *  5.0949768    4.1344777    5.6655819    5.3554950  
  20 C       1.4371612 *  3.9869113    2.8766162 *  4.9567024    4.3784833  
  21 C       3.3674251    5.4905347    4.7658544    5.5194695    5.4244122  
  22 C       2.4013865 *  3.3632490    2.4311513 *  4.1271055    3.3992458  
  23 C       2.7467930 *  2.1658156 *  1.3760805 *  3.3009714    2.2776143 *
  24 C       3.8547364    2.1564062 *  2.2299880 *  2.3250644 *  1.3891853 *
  25 C       1.4049330 *  2.2844750 *  1.3967050 *  3.9155675    3.3324795  
  26 C       0.0000000    3.5272381    2.4629977 *  4.8179571    4.3146031  
  27 C       3.5272381    0.0000000    1.3497720 *  2.2481539 *  1.3852088 *
  28 C       2.4629977 *  1.3497720 *  0.0000000    3.2711269    2.2951323 *
  29 C       4.8179571    2.2481539 *  3.2711269    0.0000000    1.3725015 *
  30 C       4.3146031    1.3852088 *  2.2951323 *  1.3725015 *  0.0000000  
  31 C       5.1305442    3.3840796    4.1020865    1.3790458 *  2.4212511 *
  32 C       3.8330985    3.9283265    4.1927096    3.4581670    4.1733864  
  33 C       4.5054806    3.4166360    4.0785598    2.2920744 *  3.3177785  
  34 C       5.1172157    4.0184383    4.6414679    2.2859111 *  3.4409607  
  35 C       3.4896666    1.3662610 *  2.1776436 *  2.2293500 *  2.2037493 *
  36 C       4.3486236    2.2355843 *  3.2051211    1.3977414 *  2.2235033 *

               31 C         32 C         33 C         34 C         35 C     

   1 C       5.4818497    3.4223942    4.4644959    5.1149345    4.0685399  
   2 C       5.7555586    3.9731065    5.0128115    5.3504720    5.0565539  
   3 C       4.9303431    2.2446473 *  3.4862106    4.2850308    3.6063441  
   4 C       4.0120921    2.4533727 *  2.7919611 *  3.8674496    1.3891897 *
   5 C       4.1073808    1.4231411 *  2.4259866 *  3.5068843    2.4149599 *
   6 C       5.4709264    3.4989710    4.6099788    4.8007193    5.3051842  
   7 C       5.0042372    3.8939565    4.6817943    4.4712752    5.6021276  
   8 C       4.0731538    3.4761625    3.9634154    3.4445822    5.3522276  
   9 C       4.8890252    2.2868700 *  3.5659375    4.0237192    4.4518145  
  10 C       3.8944287    1.4361435 *  2.5031166 *  2.8139032 *  4.0697895  
  11 C       3.4558389    2.4428037 *  2.8713380 *  2.4440864 *  4.7071419  
  12 C       3.4256441    3.9756076    4.0531066    3.2718594    5.1784343  
  13 C       4.0047372    4.4699611    4.6562503    4.1334192    5.1443076  
  14 C       3.5393189    4.5566850    4.4814118    4.0760872    4.4088108  
  15 C       2.2230543 *  3.6229616    3.2520250    2.1824668 *  4.6144652  
  16 C       1.4024715 *  3.9104466    3.1794721    2.2292779 *  3.9804393  
  17 C       2.4143580 *  4.3941667    3.8811151    3.3309697    3.8584313  
  18 C       2.2586824 *  2.7023680 *  2.3839948 *  1.3635147 *  4.3388958  
  19 C       5.4222095    4.4863858    5.2186898    5.3172976    5.0983105  
  20 C       5.0162486    4.4345732    4.9428138    5.1772598    4.2383011  
  21 C       4.9546338    4.4614939    5.0450079    4.8059794    5.4577505  
  22 C       4.1948814    4.5976094    4.6956221    4.6991878    3.9430814  
  23 C       3.7762947    4.5407744    4.3482156    4.5049431    3.0729295  
  24 C       2.7216498 *  4.4809343    3.8915428    3.7526742    3.0499058  
  25 C       4.5599720    3.5517661    3.9034977    4.6936272    2.2814381 *
  26 C       5.1305442    3.8330985    4.5054806    5.1172157    3.4896666  
  27 C       3.3840796    3.9283265    3.4166360    4.0184383    1.3662610 *
  28 C       4.1020865    4.1927096    4.0785598    4.6414679    2.1776436 *
  29 C       1.3790458 *  3.4581670    2.2920744 *  2.2859111 *  2.2293500 *
  30 C       2.4212511 *  4.1733864    3.3177785    3.4409607    2.2037493 *
  31 C       0.0000000    3.3376449    2.2128785 *  1.3852625 *  3.2323395  
  32 C       3.3376449    0.0000000    1.4112610 *  2.3750350 *  2.8219955 *
  33 C       2.2128785 *  1.4112610 *  0.0000000    1.3835220 *  2.4167407 *
  34 C       1.3852625 *  2.3750350 *  1.3835220 *  0.0000000    3.3952374  
  35 C       3.2323395    2.8219955 *  2.4167407 *  3.3952374    0.0000000  
  36 C       2.1811146 *  2.4191581 *  1.3880091 *  2.2257587 *  1.3679024 *

               36 C     

   1 C       4.7031787  
   2 C       5.4587282  
   3 C       3.9866708  
   4 C       2.3766953 *
   5 C       2.7593705 *
   6 C       5.3828001  
   7 C       5.4693283  
   8 C       4.8943085  
   9 C       4.4465450  
  10 C       3.6552566  
  11 C       4.0356291  
  12 C       4.6929582  
  13 C       5.0010860  
  14 C       4.4244281  
  15 C       3.8489472  
  16 C       3.2587146  
  17 C       3.6178063  
  18 C       3.3932696  
  19 C       5.4829312  
  20 C       4.8512969  
  21 C       5.5094558  
  22 C       4.3980246  
  23 C       3.6679790  
  24 C       3.1597784  
  25 C       3.3847083  
  26 C       4.3486236  
  27 C       2.2355843 *
  28 C       3.2051211  
  29 C       1.3977414 *
  30 C       2.2235033 *
  31 C       2.1811146 *
  32 C       2.4191581 *
  33 C       1.3880091 *
  34 C       2.2257587 *
  35 C       1.3679024 *
  36 C       0.0000000  

  * ... LESS THAN  3.000


 TOTAL NUMBER OF BASIS SET SHELLS             =   36
 NUMBER OF CARTESIAN GAUSSIAN BASIS FUNCTIONS =  144
 NUMBER OF ELECTRONS                          =  144
 CHARGE OF MOLECULE                           =    0
 SPIN MULTIPLICITY                            =    1
 NUMBER OF OCCUPIED ORBITALS (ALPHA)          =   72
 NUMBER OF OCCUPIED ORBITALS (BETA )          =   72
 TOTAL NUMBER OF ATOMS                        =   36
 THE NUCLEAR REPULSION ENERGY IS     3822.9003801792

 THE PARAMETERS USED IN THIS CALCULATION ARE DESCRIBED IN:

  C: (PM3): J. J. P. STEWART, J. COMP. CHEM. 10, 209 (1989).                    

 THERE ARE   36 HEAVY AND    0 LIGHT ATOMS,
 YIELDING A TOTAL OF     63000 MOPAC 2E- INTEGRALS.

     $CONTRL OPTIONS
     ---------------
 SCFTYP=RHF          RUNTYP=OPTIMIZE     EXETYP=RUN     
 MPLEVL=       0     CITYP =NONE         CCTYP =NONE         VBTYP =NONE    
 DFTTYP=NONE         TDDFT =NONE    
 MULT  =       1     ICHARG=       0     NZVAR =       0     COORD =UNIQUE  
 PP    =NONE         RELWFN=NONE         LOCAL =NONE         NUMGRD=       F
 ISPHER=      -1     NOSYM =       0     MAXIT =     200     UNITS =ANGS    
 PLTORB=       F     MOLPLT=       F     AIMPAC=       F     FRIEND=        
 NPRINT=       7     IREST =       0     GEOM  =INPUT   
 NORMF =       0     NORMP =       0     ITOL  =      20     ICUT  =       9
 INTTYP=BEST         GRDTYP=BEST         QMTTOL= 1.0E-06

     $SYSTEM OPTIONS
     ---------------
  REPLICATED MEMORY=    10000000 WORDS (ON EVERY NODE).
 DISTRIBUTED MEMDDI=           0 MILLION WORDS IN AGGREGATE,
 MEMDDI DISTRIBUTED OVER   2 PROCESSORS IS           0 WORDS/PROCESSOR.
 TOTAL MEMORY REQUESTED ON EACH PROCESSOR=    10000000 WORDS.
 TIMLIM=      525600.00 MINUTES, OR     365.0 DAYS.
 PARALL= T  BALTYP=  DLB     KDIAG=    0  COREFL= F
 MXSEQ2=     300 MXSEQ3=     150  mem10=         0  mem22=         0

          ----------------
          PROPERTIES INPUT
          ----------------

     MOMENTS            FIELD           POTENTIAL          DENSITY
 IEMOM =       1   IEFLD =       0   IEPOT =       0   IEDEN =       0
 WHERE =COMASS     WHERE =NUCLEI     WHERE =NUCLEI     WHERE =NUCLEI  
 OUTPUT=BOTH       OUTPUT=BOTH       OUTPUT=BOTH       OUTPUT=BOTH    
 IEMINT=       0   IEFINT=       0                     IEDINT=       0
                                                       MORB  =       0
          EXTRAPOLATION IN EFFECT
          SOSCF IN EFFECT
 ORBITAL PRINTING OPTION: NPREO=     1   144     2     1

     -------------------------------
     INTEGRAL TRANSFORMATION OPTIONS
     -------------------------------
     NWORD  =            0
     CUTTRF = 1.0E-09     MPTRAN =       0
     DIRTRF =       T     AOINTS =DUP     

          ----------------------
          INTEGRAL INPUT OPTIONS
          ----------------------
 NOPK  =       1 NORDER=       0 SCHWRZ=       T

     ------------------------------------------
     THE POINT GROUP IS C1 , NAXIS= 0, ORDER= 1
     ------------------------------------------

     DIMENSIONS OF THE SYMMETRY SUBSPACES ARE
 A   =  144

 ..... DONE SETTING UP THE RUN .....
 CPU     0: STEP CPU TIME=     0.00 TOTAL CPU TIME=          0.0 (      0.0 MIN)
 TOTAL WALL CLOCK TIME=          0.0 SECONDS, CPU UTILIZATION IS     0.00%


          -----------------------------
          STATIONARY POINT LOCATION RUN
          -----------------------------

 OBTAINING INITIAL HESSIAN, HESS=GUESS   
 CARTESIAN COORDINATE OPTIMIZATION USING BADGER'S RULE FORCE CONSTANT GUESS

          PARAMETERS CONTROLLING GEOMETRY SEARCH ARE
          METHOD =QA                  UPHESS =BFGS    
          NNEG   =         0          NFRZ   =         0
          NSTEP  =       100          IFOLOW =         1
          HESS   =GUESS               RESTAR =         F
          IHREP  =         0          HSSEND =         F
          NPRT   =         0          NPUN   =         0
          OPTTOL = 1.000E-03          RMIN   = 1.500E-03
          RMAX   = 1.000E-01          RLIM   = 7.000E-02
          DXMAX  = 3.000E-01          PURIFY =         F
          MOVIE  =         F          TRUPD  =         T
          TRMAX  = 5.000E-01          TRMIN  = 5.000E-02
          ITBMAT =         5          STPT   =         F
          STSTEP = 1.000E-02          PROJCT=          T

 BEGINNING GEOMETRY SEARCH POINT NSERCH=   0 ...

 COORDINATES OF ALL ATOMS ARE (ANGS)
   ATOM   CHARGE       X              Y              Z
 ------------------------------------------------------------
 C           6.0   1.7098000000  -2.0822000000   0.5890000000
 C           6.0   2.6829000000  -1.3954000000  -0.0684000000
 C           6.0   1.3942000000  -1.2966000000   1.6686000000
 C           6.0  -0.9518000000  -1.7455000000   1.4248000000
 C           6.0   0.1021000000  -1.0493000000   2.0382000000
 C           6.0   2.9930000000  -0.2165000000   0.5669000000
 C           6.0   2.8194000000   0.7865000000  -0.3638000000
 C           6.0   2.0319000000   1.8760000000  -0.0859000000
 C           6.0   2.1390000000  -0.1446000000   1.6543000000
 C           6.0   1.2715000000   0.9128000000   1.9391000000
 C           6.0   1.2804000000   2.0526000000   1.0925000000
 C           6.0   1.1449000000   2.0258000000  -1.1347000000
 C           6.0   1.2339000000   0.9353000000  -1.9730000000
 C           6.0   0.0134000000   0.3009000000  -2.2745000000
 C           6.0  -0.0374000000   2.4777000000  -0.6494000000
 C           6.0  -1.2673000000   1.9830000000  -1.0385000000
 C           6.0  -1.2465000000   0.8594000000  -1.9019000000
 C           6.0   0.0414000000   2.5563000000   0.7238000000
 C           6.0   2.2048000000  -1.1567000000  -1.3212000000
 C           6.0   0.9695000000  -1.7834000000  -1.4826000000
 C           6.0   2.3105000000   0.1905000000  -1.5290000000
 C           6.0  -0.1051000000  -1.1024000000  -2.0795000000
 C           6.0  -1.3973000000  -1.3501000000  -1.6919000000
 C           6.0  -2.1272000000  -0.1792000000  -1.6286000000
 C           6.0  -0.6670000000  -2.4546000000   0.2043000000
 C           6.0   0.6631000000  -2.4524000000  -0.2481000000
 C           6.0  -2.6983000000  -1.4226000000   0.0381000000
 C           6.0  -1.7510000000  -2.1291000000  -0.6141000000
 C           6.0  -2.8412000000   0.7983000000   0.3565000000
 C           6.0  -3.0110000000  -0.2116000000  -0.5573000000
 C           6.0  -2.0354000000   1.8946000000   0.1316000000
 C           6.0  -0.0040000000   0.3488000000   2.2819000000
 C           6.0  -1.2305000000   0.9770000000   1.9774000000
 C           6.0  -1.1613000000   2.1088000000   1.1847000000
 C           6.0  -2.1860000000  -1.1270000000   1.2697000000
 C           6.0  -2.2902000000   0.2170000000   1.5020000000

          ********************
          1 ELECTRON INTEGRALS
          ********************

          **************************
          1 AND 2 ELECTRON INTEGRALS
          **************************

 MOPAC ONE- AND TWO-ELECTRON INTEGRALS REQUIRE     83880 WORDS.
 ...... END OF ONE- AND TWO-ELECTRON INTEGRALS......
 CPU     0: STEP CPU TIME=     0.00 TOTAL CPU TIME=          0.0 (      0.0 MIN)
 TOTAL WALL CLOCK TIME=          0.0 SECONDS, CPU UTILIZATION IS     0.00%
 ...... END OF ONE-ELECTRON INTEGRALS ......
 CPU     0: STEP CPU TIME=     0.00 TOTAL CPU TIME=          0.0 (      0.0 MIN)
 TOTAL WALL CLOCK TIME=          0.0 SECONDS, CPU UTILIZATION IS     0.00%

          -------------
          GUESS OPTIONS
          -------------
          GUESS =HUCKEL            NORB  =       0          NORDER=       0
          MIX   =       F          PRTMO =       F          PUNMO =       F
          TOLZ  = 1.0E-08          TOLE  = 1.0E-05
          SYMDEN=       F          PURIFY=       F

 INITIAL GUESS ORBITALS GENERATED BY HUCKEL   ROUTINE.

 SYMMETRIES FOR INITIAL GUESS ORBITALS FOLLOW.   BOTH SET(S).
    72 ORBITALS ARE OCCUPIED (    0 CORE ORBITALS).
     1=A        2=A        3=A        4=A        5=A        6=A        7=A   
     8=A        9=A       10=A       11=A       12=A       13=A       14=A   
    15=A       16=A       17=A       18=A       19=A       20=A       21=A   
    22=A       23=A       24=A       25=A       26=A       27=A       28=A   
    29=A       30=A       31=A       32=A       33=A       34=A       35=A   
    36=A       37=A       38=A       39=A       40=A       41=A       42=A   
    43=A       44=A       45=A       46=A       47=A       48=A       49=A   
    50=A       51=A       52=A       53=A       54=A       55=A       56=A   
    57=A       58=A       59=A       60=A       61=A       62=A       63=A   
    64=A       65=A       66=A       67=A       68=A       69=A       70=A   
    71=A       72=A       73=A       74=A       75=A       76=A       77=A   
    78=A       79=A       80=A       81=A       82=A   
 ...... END OF INITIAL ORBITAL SELECTION ......
 CPU     0: STEP CPU TIME=     0.02 TOTAL CPU TIME=          0.0 (      0.0 MIN)
 TOTAL WALL CLOCK TIME=          0.0 SECONDS, CPU UTILIZATION IS    35.51%

          --------------------------
               R-PM3 SCF CALCULATION
          --------------------------

     NUCLEAR ENERGY =      1526.8942773295
     MAXIT =  200     NPUNCH=    2
     EXTRAP=T  DAMP=F  SHIFT=F  RSTRCT=F  DIIS=F  DEM=F  SOSCF=T
     DENSITY MATRIX CONV=  2.00E-05
     SOSCF WILL OPTIMIZE    5184 ORBITAL ROTATIONS, SOGTOL=   0.250
     MEMORY REQUIRED FOR RHF ITERS=    231480 WORDS.

                                                                                   NONZERO     BLOCKS
 ITER EX DEM     TOTAL ENERGY        E CHANGE  DENSITY CHANGE     ORB. GRAD      INTEGRALS    SKIPPED
   1  0  0     -154.1207980416  -154.1207980416   0.167506713   0.000000000              0          0
          ---------------START SECOND ORDER SCF---------------
   2  1  0     -155.2005489830    -1.0797509414   0.050434568   0.018715554              0          0
   3  2  0     -155.2872603922    -0.0867114091   0.024983940   0.005534246              0          0
   4  3  0     -155.2979877577    -0.0107273656   0.010130654   0.002352813              0          0
   5  4  0     -155.2986668508    -0.0006790930   0.010133259   0.002288592              0          0
   6  5  0     -155.2991462414    -0.0004793907   0.011599369   0.001241861              0          0
   7  6  0     -155.2993938893    -0.0002476479   0.009457618   0.001073401              0          0
   8  7  0     -155.2995109122    -0.0001170229   0.009433188   0.000724723              0          0
   9  8  0     -155.2996419798    -0.0001310676   0.008906910   0.000526735              0          0
  10  9  0     -155.2997218179    -0.0000798381   0.001815574   0.000317739              0          0
  11 10  0     -155.2997370504    -0.0000152325   0.001801832   0.000207030              0          0
  12 11  0     -155.2997481480    -0.0000110975   0.000897939   0.000096669              0          0
  13 12  0     -155.2997510251    -0.0000028771   0.000616079   0.000075256              0          0
  14 13  0     -155.2997522739    -0.0000012488   0.000273569   0.000056648              0          0
  15 14  0     -155.2997527070    -0.0000004331   0.000185758   0.000035795              0          0
  16 15  0     -155.2997528882    -0.0000001812   0.000134295   0.000016922              0          0
  17 16  0     -155.2997529654    -0.0000000772   0.000112856   0.000010728              0          0
  18 17  0     -155.2997530087    -0.0000000434   0.000101639   0.000009125              0          0
  19 18  0     -155.2997530315    -0.0000000228   0.000082089   0.000007034              0          0
  20 19  0     -155.2997530441    -0.0000000126   0.000067137   0.000007399              0          0
  21 20  0     -155.2997530524    -0.0000000083   0.000070302   0.000007495              0          0
  22 21  0     -155.2997530602    -0.0000000078   0.000093562   0.000006849              0          0
  23 22  0     -155.2997530686    -0.0000000084   0.000112303   0.000005465              0          0
  24 23  0     -155.2997530768    -0.0000000082   0.000095279   0.000005018              0          0
  25 24  0     -155.2997530822    -0.0000000054   0.000044640   0.000002859              0          0
  26 25  0     -155.2997530843    -0.0000000021   0.000011647   0.000001412              0          0
  27 26  0     -155.2997530849    -0.0000000005   0.000004182   0.000000672              0          0

          -----------------
          DENSITY CONVERGED
          -----------------
     TIME TO FORM FOCK OPERATORS=       0.0 SECONDS (       0.0 SEC/ITER)
     FOCK TIME ON FIRST ITERATION=       0.0, LAST ITERATION=       0.0
     TIME TO SOLVE SCF EQUATIONS=       0.1 SECONDS (       0.0 SEC/ITER)

 FINAL R-PM3 ENERGY IS     -155.2997530849 AFTER  27 ITERATIONS

 HEAT OF FORMATION IS      1039.74270 KCAL/MOL
 

          ------------
          EIGENVECTORS
          ------------

                      1          2          3          4          5
                   -1.9394    -1.7763    -1.6937    -1.6278    -1.4454
                     A          A          A          A          A   
    1  C  1  S    0.164246   0.177353  -0.196284  -0.096542   0.189314
    2  C  1  X   -0.011081   0.016517   0.024009   0.010941   0.021583
    3  C  1  Y    0.045325   0.059648  -0.036484  -0.036135   0.037907
    4  C  1  Z   -0.015194  -0.019574   0.024989  -0.041927  -0.059854
    5  C  2  S    0.174747   0.245581  -0.152405  -0.022334   0.227382
    6  C  2  X   -0.044239  -0.050422   0.051316   0.007631  -0.066529
    7  C  2  Y    0.032419   0.053169   0.001611   0.003355  -0.005173
    8  C  2  Z    0.002125   0.003251  -0.004470  -0.053003  -0.018311
    9  C  3  S    0.167968   0.154146  -0.139049  -0.234988   0.019236
   10  C  3  X   -0.005825   0.030197   0.005970   0.028792   0.044145
   11  C  3  Y    0.025106   0.025771   0.011403  -0.052961  -0.035469
   12  C  3  Z   -0.034419  -0.043126   0.042771   0.009240  -0.050497
   13  C  4  S    0.151679  -0.098642  -0.160663  -0.150095  -0.174986
   14  C  4  X    0.000686   0.045293  -0.004513  -0.022536   0.027837
   15  C  4  Y    0.025175  -0.020227  -0.000887  -0.045381  -0.010604
   16  C  4  Z   -0.028379   0.028632   0.046341  -0.013103   0.040971
   17  C  5  S    0.151606   0.021921  -0.096471  -0.261318  -0.101838
   18  C  5  X    0.006890   0.051170  -0.006000  -0.020632   0.015562
   19  C  5  Y    0.016083   0.003467   0.027523  -0.045856  -0.011786
   20  C  5  Z   -0.030705  -0.003758   0.033086   0.030184   0.011393
   21  C  6  S    0.167735   0.243544  -0.060565  -0.060425   0.043022
   22  C  6  X   -0.050211  -0.065496   0.018551   0.030222  -0.006059
   23  C  6  Y   -0.005236  -0.010691   0.042681   0.014848  -0.076126
   24  C  6  Z   -0.019179  -0.033415   0.003673  -0.044457  -0.023739
   25  C  7  S    0.169868   0.230396   0.051564   0.068744  -0.115734
   26  C  7  X   -0.044757  -0.049556  -0.032018  -0.027466   0.054273
   27  C  7  Y   -0.022460  -0.043189   0.045390   0.004389  -0.075727
   28  C  7  Z    0.002392   0.004848  -0.004489  -0.047761  -0.007979
   29  C  8  S    0.164791   0.159022   0.195295   0.059590  -0.276229
   30  C  8  X   -0.031045  -0.005619  -0.068076  -0.008949   0.051122
   31  C  8  Y   -0.033140  -0.049081  -0.000877  -0.012173   0.026531
   32  C  8  Z   -0.006610  -0.010461  -0.006265  -0.053994   0.005821
   33  C  9  S    0.166022   0.192556  -0.048462  -0.204576  -0.050614
   34  C  9  X   -0.026305  -0.008454   0.001948   0.063533   0.033728
   35  C  9  Y   -0.008286  -0.015913   0.047439   0.016172  -0.061450
   36  C  9  Z   -0.036765  -0.056303   0.015194   0.004145  -0.018436
   37  C 10  S    0.149486   0.102300   0.078762  -0.213429  -0.160470
   38  C 10  X   -0.011218   0.022870  -0.019940   0.033979  -0.004179
   39  C 10  Y   -0.018004  -0.022445   0.042495   0.052839  -0.005119
   40  C 10  Z   -0.031921  -0.029253  -0.028822   0.013370   0.038683
   41  C 11  S    0.150555   0.087959   0.214332  -0.075671  -0.216641
   42  C 11  X   -0.017782   0.018905  -0.046526   0.019947  -0.016630
   43  C 11  Y   -0.027517  -0.027145  -0.006954   0.033706   0.034621
   44  C 11  Z   -0.027511  -0.020890  -0.054838  -0.034671   0.052230
   45  C 12  S    0.167061   0.105772   0.235588   0.158144  -0.210805
   46  C 12  X   -0.008756   0.029408  -0.032396  -0.007274  -0.037611
   47  C 12  Y   -0.032678  -0.032887  -0.013453  -0.049151   0.026282
   48  C 12  Z    0.027884   0.017381   0.058473  -0.015776  -0.056954
   49  C 13  S    0.157390   0.117313   0.101943   0.237293  -0.090585
   50  C 13  X   -0.004571   0.032061  -0.009527  -0.023651  -0.022523
   51  C 13  Y   -0.010837  -0.012458   0.038919  -0.025498  -0.045217
   52  C 13  Z    0.040504   0.039406   0.038749   0.037095  -0.046718
   53  C 14  S    0.149715  -0.002925   0.019236   0.278490   0.027893
   54  C 14  X   -0.002650   0.047104   0.009679  -0.008708  -0.016745
   55  C 14  Y   -0.006110   0.005895   0.049305  -0.018317  -0.016209
   56  C 14  Z    0.033845   0.000076   0.010183   0.048435   0.002586
   57  C 15  S    0.165464  -0.000883   0.298797   0.076227  -0.022210
   58  C 15  X    0.003119   0.042390   0.006471   0.015492  -0.113957
   59  C 15  Y   -0.036973  -0.000284  -0.049653  -0.029256   0.002605
   60  C 15  Z    0.020740  -0.003964   0.051944  -0.038621   0.001908
   61  C 16  S    0.154244  -0.096417   0.209296   0.090138   0.178976
   62  C 16  X    0.017146   0.019999   0.044069   0.024707  -0.032656
   63  C 16  Y   -0.026042   0.026944   0.000005  -0.034131  -0.024821
   64  C 16  Z    0.027872  -0.022950   0.058309  -0.033233   0.057125
   65  C 17  S    0.151713  -0.106094   0.059806   0.220494   0.094186
   66  C 17  X    0.010994   0.024446   0.017655   0.036457  -0.014192
   67  C 17  Y   -0.018260   0.022286   0.046847  -0.048901   0.017606
   68  C 17  Z    0.031154  -0.029849   0.027054   0.013225   0.033731
   69  C 18  S    0.159938  -0.005399   0.297164  -0.056874  -0.024404
   70  C 18  X   -0.003234   0.040153  -0.008203   0.014111  -0.113404
   71  C 18  Y   -0.039456   0.001323  -0.058761   0.024833   0.005729
   72  C 18  Z   -0.020858  -0.002597  -0.048719  -0.037651   0.007429
   73  C 19  S    0.167671   0.209870  -0.123303   0.114016   0.210762
   74  C 19  X   -0.022245  -0.006919   0.025186  -0.032069  -0.028096
   75  C 19  Y    0.022887   0.034666   0.020748   0.033214  -0.027047
   76  C 19  Z    0.038032   0.058099  -0.037998  -0.016236   0.057532
   77  C 20  S    0.150448   0.096660  -0.166100   0.139017   0.169024
   78  C 20  X   -0.001221   0.043389   0.007603  -0.021631   0.049220
   79  C 20  Y    0.026194   0.020841  -0.005358   0.045662   0.018406
   80  C 20  Z    0.029049   0.028491  -0.045090  -0.014532   0.041779
   81  C 21  S    0.171068   0.212954   0.010525   0.174785  -0.004265
   82  C 21  X   -0.026277  -0.013712  -0.011297  -0.050588   0.010185
   83  C 21  Y   -0.003446  -0.010975   0.054240   0.009648  -0.095948
   84  C 21  Z    0.039552   0.060595  -0.001308   0.004083  -0.003735
   85  C 22  S    0.149848  -0.022034  -0.114650   0.249165   0.045509
   86  C 22  X   -0.005457   0.049889   0.007065  -0.016601   0.038216
   87  C 22  Y    0.016661  -0.003762   0.022492   0.048938   0.005174
   88  C 22  Z    0.031501  -0.004248  -0.035394   0.029320   0.004829
   89  C 23  S    0.164361  -0.152083  -0.157105   0.214669  -0.086140
   90  C 23  X    0.006517   0.029179  -0.007193   0.028958   0.031131
   91  C 23  Y    0.024783  -0.025534   0.006567   0.052578   0.021560
   92  C 23  Z    0.034431  -0.043679  -0.044729   0.006151  -0.049935
   93  C 24  S    0.166081  -0.195799  -0.067487   0.193946   0.004346
   94  C 24  X    0.025620  -0.007217  -0.005942   0.062343   0.008012
   95  C 24  Y   -0.007750   0.014802   0.049232  -0.010792   0.065225
   96  C 24  Z    0.035451  -0.055857  -0.015890  -0.000547  -0.006760
   97  C 25  S    0.147080  -0.074404  -0.211734  -0.018852  -0.139134
   98  C 25  X   -0.002733   0.050359  -0.000496  -0.008494   0.072158
   99  C 25  Y    0.038357  -0.026020  -0.045482  -0.008499  -0.038966
  100  C 25  Z   -0.004597   0.003889   0.010956  -0.047374  -0.012504
  101  C 26  S    0.147626   0.072036  -0.210551   0.006044   0.108050
  102  C 26  X    0.002768   0.049956   0.002660  -0.007756   0.082329
  103  C 26  Y    0.038652   0.025877  -0.045402   0.005261   0.035451
  104  C 26  Z    0.004151   0.003521  -0.007661  -0.048814  -0.019035
  105  C 27  S    0.170011  -0.243022  -0.157534   0.011905  -0.182967
  106  C 27  X    0.044340  -0.051837  -0.053591   0.003972  -0.069053
  107  C 27  Y    0.031797  -0.053089   0.000436  -0.003329   0.025058
  108  C 27  Z   -0.002503   0.003566   0.008179  -0.048676   0.002253
  109  C 28  S    0.159730  -0.176940  -0.203172   0.077777  -0.211095
  110  C 28  X    0.012744   0.013025  -0.025890   0.009790   0.002677
  111  C 28  Y    0.045552  -0.060674  -0.041864   0.031397  -0.042668
  112  C 28  Z    0.014691  -0.019642  -0.022234  -0.040406  -0.044871
  113  C 29  S    0.166254  -0.230935   0.054453  -0.063283   0.195508
  114  C 29  X    0.045022  -0.051733   0.033477  -0.024294   0.067510
  115  C 29  Y   -0.021989   0.042790   0.045444  -0.000633   0.055590
  116  C 29  Z   -0.001712   0.003900   0.008409  -0.044630   0.008305
  117  C 30  S    0.164025  -0.242982  -0.066306   0.049033   0.000093
  118  C 30  X    0.049623  -0.066177  -0.020916   0.026182  -0.004697
  119  C 30  Y   -0.005286   0.010595   0.043922  -0.011238   0.079557
  120  C 30  Z    0.018556  -0.032913  -0.000738  -0.042450   0.008517
  121  C 31  S    0.163387  -0.163056   0.199772  -0.049049   0.296189
  122  C 31  X    0.031226  -0.007106   0.069059  -0.004346   0.035626
  123  C 31  Y   -0.033115   0.049558  -0.002546   0.012067  -0.046397
  124  C 31  Z    0.006045  -0.009422   0.009977  -0.051111   0.021967
  125  C 32  S    0.147988   0.002422   0.042029  -0.272789  -0.074959
  126  C 32  X    0.003231   0.046510  -0.008646  -0.010936  -0.043292
  127  C 32  Y   -0.005904  -0.006365   0.047962   0.023063   0.021341
  128  C 32  Z   -0.033790   0.000482  -0.013718   0.047623   0.009838
  129  C 33  S    0.155061  -0.117703   0.122182  -0.222398   0.120864
  130  C 33  X    0.005130   0.030977   0.011246  -0.023275  -0.050765
  131  C 33  Y   -0.009374   0.010977   0.038769   0.026977   0.039045
  132  C 33  Z   -0.039912   0.039805  -0.041759   0.032641  -0.059627
  133  C 34  S    0.161625  -0.106694   0.245228  -0.135156   0.209088
  134  C 34  X    0.010299   0.026051   0.034571  -0.005727  -0.057249
  135  C 34  Y   -0.033856   0.033774  -0.022090   0.047018  -0.044613
  136  C 34  Z   -0.028297   0.018925  -0.057431  -0.016286  -0.050379
  137  C 35  S    0.167821  -0.213536  -0.119568  -0.119257  -0.143277
  138  C 35  X    0.021327  -0.005476  -0.022795  -0.033551  -0.036249
  139  C 35  Y    0.021469  -0.033268   0.025091  -0.030357   0.054693
  140  C 35  Z   -0.037161   0.057943   0.039946  -0.015067   0.044618
  141  C 36  S    0.169930  -0.214897   0.024087  -0.169288   0.101610
  142  C 36  X    0.024600  -0.011526   0.014767  -0.047130   0.007671
  143  C 36  Y   -0.002398   0.009571   0.056634  -0.005815   0.093432
  144  C 36  Z   -0.038975   0.061112   0.001398   0.003234  -0.027913

                      6          7          8          9         10
                   -1.4364    -1.3804    -1.3296    -1.2795    -1.1796
                     A          A          A          A          A   
    1  C  1  S   -0.096891  -0.046070  -0.175626   0.139025   0.197132
    2  C  1  X    0.060453   0.066031  -0.012586  -0.027632  -0.042160
    3  C  1  Y    0.001928   0.053135  -0.031045   0.035729  -0.005062
    4  C  1  Z   -0.017893   0.075970   0.026195   0.069814  -0.054232
    5  C  2  S    0.117678   0.031987  -0.155786  -0.002180  -0.036118
    6  C  2  X    0.020332   0.032038   0.036998  -0.008585  -0.085604
    7  C  2  Y    0.079659   0.056585   0.004449  -0.016326  -0.134599
    8  C  2  Z   -0.037354   0.080855  -0.043097   0.066658   0.000454
    9  C  3  S   -0.171890   0.155722  -0.006134   0.230857   0.079134
   10  C  3  X    0.053437   0.058338  -0.074302  -0.035061  -0.008858
   11  C  3  Y   -0.016718   0.094297   0.046971  -0.021180  -0.023409
   12  C  3  Z    0.000483   0.008516   0.067845  -0.030987  -0.028145
   13  C  4  S   -0.041498  -0.223652   0.064611   0.208334  -0.177433
   14  C  4  X   -0.079095   0.011049   0.017777   0.032934   0.029139
   15  C  4  Y    0.015099  -0.003064   0.071433   0.021128   0.010121
   16  C  4  Z    0.001029   0.051995   0.063471  -0.000005   0.049585
   17  C  5  S   -0.176478  -0.007413   0.214445   0.201609  -0.024701
   18  C  5  X   -0.050388   0.090388  -0.027778   0.016537   0.058381
   19  C  5  Y   -0.012444   0.053141   0.076614  -0.060779   0.007163
   20  C  5  Z    0.025464   0.028222   0.006295  -0.049894   0.006866
   21  C  6  S    0.176732   0.214794  -0.118121  -0.021389  -0.242166
   22  C  6  X   -0.016614  -0.061274   0.026802  -0.005893   0.015821
   23  C  6  Y    0.023097   0.003341   0.033067  -0.042675  -0.024321
   24  C  6  Z   -0.083393   0.044228  -0.009208   0.027895   0.076316
   25  C  7  S    0.281670   0.062191   0.011178  -0.047823  -0.210908
   26  C  7  X   -0.046238   0.009559  -0.018397  -0.004157  -0.017943
   27  C  7  Y   -0.048576  -0.029264   0.008760   0.017226   0.116364
   28  C  7  Z   -0.025458   0.068909  -0.060937  -0.034256  -0.006167
   29  C  8  S    0.114723  -0.021670  -0.075089  -0.047749   0.140459
   30  C  8  X    0.042254   0.040031   0.046184  -0.002087  -0.102377
   31  C  8  Y   -0.066486  -0.029689  -0.031694   0.008092   0.062770
   32  C  8  Z   -0.044890   0.046708  -0.049625  -0.088285   0.014479
   33  C  9  S   -0.054078   0.312407  -0.029278   0.022563  -0.031727
   34  C  9  X    0.071918  -0.032652  -0.057524  -0.009664  -0.055111
   35  C  9  Y    0.016197  -0.005450   0.024847  -0.093857  -0.001633
   36  C  9  Z   -0.047973  -0.040139   0.054713   0.000197   0.050240
   37  C 10  S   -0.129502   0.195608   0.076854  -0.200035   0.081058
   38  C 10  X    0.040392   0.036370  -0.055988   0.035576  -0.006762
   39  C 10  Y    0.029432  -0.069643  -0.056168  -0.071233   0.023957
   40  C 10  Z   -0.003413  -0.022101   0.034955   0.042229  -0.021636
   41  C 11  S   -0.070541   0.013214  -0.132111  -0.246317   0.190468
   42  C 11  X    0.049788   0.040914   0.021600   0.040148  -0.001704
   43  C 11  Y    0.001979  -0.052426  -0.026491   0.044734  -0.000635
   44  C 11  Z   -0.015418   0.039966   0.061327  -0.029477  -0.055332
   45  C 12  S    0.026213  -0.120740  -0.007605   0.198799   0.172920
   46  C 12  X    0.077869   0.007698   0.039834  -0.057491  -0.000741
   47  C 12  Y   -0.040977   0.008518  -0.078905  -0.040003   0.011769
   48  C 12  Z   -0.006638  -0.018575  -0.090437  -0.049086   0.059837
   49  C 13  S    0.067489  -0.095515   0.268685   0.181912   0.046499
   50  C 13  X    0.086358  -0.022314  -0.014034  -0.045691  -0.026580
   51  C 13  Y   -0.004357   0.003588  -0.065958   0.057626   0.027671
   52  C 13  Z    0.042987  -0.025606   0.012944   0.033447   0.011398
   53  C 14  S   -0.162151   0.065081   0.287836   0.083758   0.009664
   54  C 14  X    0.061633  -0.089105   0.037285   0.010127   0.036854
   55  C 14  Y    0.027215  -0.006105  -0.026317   0.117822  -0.005423
   56  C 14  Z   -0.022994   0.006130   0.032216   0.023892   0.000952
   57  C 15  S   -0.139578  -0.117385  -0.209497   0.179018   0.003271
   58  C 15  X    0.026918  -0.025331   0.009419  -0.023958   0.146966
   59  C 15  Y    0.020599   0.006108   0.001743  -0.056012  -0.000141
   60  C 15  Z   -0.019084  -0.033963  -0.077027  -0.093344  -0.008601
   61  C 16  S   -0.127882   0.044654  -0.119722   0.260306  -0.167417
   62  C 16  X   -0.042881  -0.040358  -0.016436   0.045749  -0.005477
   63  C 16  Y    0.009311  -0.059379  -0.031425  -0.038336  -0.011017
   64  C 16  Z   -0.000598  -0.039626  -0.063575  -0.023301  -0.056462
   65  C 17  S   -0.171678   0.222949   0.084968   0.183775  -0.061327
   66  C 17  X   -0.037942  -0.036372   0.059662   0.033926  -0.010608
   67  C 17  Y    0.029512  -0.065966  -0.048962   0.081346  -0.017138
   68  C 17  Z   -0.005181   0.025893  -0.033947   0.045729  -0.014232
   69  C 18  S   -0.141032  -0.126100  -0.218411  -0.156545  -0.002204
   70  C 18  X    0.010044   0.016710  -0.007598  -0.022472   0.149548
   71  C 18  Y    0.025098   0.013843   0.013532   0.052265  -0.000609
   72  C 18  Z    0.015795   0.028754   0.070810  -0.091797  -0.009507
   73  C 19  S    0.133426  -0.138053   0.038735  -0.127583   0.012661
   74  C 19  X    0.047488   0.056473  -0.032207   0.030734  -0.096270
   75  C 19  Y    0.078963   0.017797   0.062495   0.003187  -0.113208
   76  C 19  Z    0.034471   0.006317  -0.068269   0.000810  -0.011539
   77  C 20  S   -0.107077  -0.213113   0.042844  -0.199945   0.197242
   78  C 20  X    0.067138  -0.007532  -0.016726   0.030350   0.028154
   79  C 20  Y    0.007977  -0.004017   0.066341  -0.028152  -0.006309
   80  C 20  Z   -0.014987  -0.051018  -0.062656   0.006396   0.053222
   81  C 21  S    0.253606  -0.088571   0.186489  -0.010541  -0.141418
   82  C 21  X    0.013011   0.038184  -0.073209  -0.024220  -0.058432
   83  C 21  Y    0.009053   0.008140   0.020259   0.065395   0.019908
   84  C 21  Z    0.078537   0.018483  -0.029574  -0.018598  -0.074491
   85  C 22  S   -0.211251  -0.003113   0.187653  -0.214260   0.028741
   86  C 22  X    0.039466  -0.086472   0.029003   0.015384   0.066165
   87  C 22  Y   -0.016165   0.056958   0.079114   0.046652  -0.009342
   88  C 22  Z   -0.031961  -0.027644  -0.008415  -0.045261   0.008142
   89  C 23  S   -0.161884   0.139452  -0.027179  -0.231851  -0.101898
   90  C 23  X   -0.067179  -0.051552   0.067824  -0.033923   0.000099
   91  C 23  Y   -0.027238   0.096693   0.045532   0.009321   0.023652
   92  C 23  Z    0.014532  -0.013589  -0.067336  -0.023703  -0.035813
   93  C 24  S   -0.062907   0.313356  -0.036794  -0.038022   0.029790
   94  C 24  X   -0.082183   0.034376   0.054242  -0.013526  -0.057285
   95  C 24  Y   -0.001998   0.007916   0.029785   0.092403   0.019290
   96  C 24  Z    0.055477   0.034526  -0.052497   0.004280   0.050558
   97  C 25  S   -0.122961  -0.258076  -0.123834   0.043872  -0.167868
   98  C 25  X   -0.052177  -0.018043   0.011716   0.013719   0.107615
   99  C 25  Y   -0.014105  -0.040455  -0.010449   0.015562  -0.041127
  100  C 25  Z    0.019412  -0.008178   0.029563   0.092209  -0.011245
  101  C 26  S   -0.166308  -0.251404  -0.127961  -0.015937   0.178810
  102  C 26  X    0.026607   0.022299  -0.012136   0.008722   0.103832
  103  C 26  Y   -0.027286  -0.038271  -0.012614  -0.010723   0.043739
  104  C 26  Z   -0.010213   0.007644  -0.023178   0.095804  -0.016134
  105  C 27  S    0.182308   0.018475  -0.147920  -0.000553   0.026435
  106  C 27  X    0.003561  -0.036757  -0.036839  -0.003779  -0.086503
  107  C 27  Y    0.074348   0.057887   0.005839   0.010716   0.135749
  108  C 27  Z    0.040496  -0.074802   0.046210   0.062926   0.012876
  109  C 28  S   -0.030357  -0.062937  -0.179848  -0.118752  -0.213475
  110  C 28  X   -0.063781  -0.063226   0.006847  -0.020872  -0.040497
  111  C 28  Y    0.014024   0.045570  -0.034837  -0.036002  -0.005599
  112  C 28  Z    0.037261  -0.074539  -0.018460   0.070944  -0.044996
  113  C 29  S    0.232091   0.078525   0.014143   0.039548   0.222173
  114  C 29  X    0.028339  -0.003638   0.016596  -0.002194  -0.016026
  115  C 29  Y   -0.071436  -0.025574   0.003931  -0.012105  -0.120110
  116  C 29  Z    0.024687  -0.067978   0.056951  -0.036319  -0.012706
  117  C 30  S    0.189008   0.209702  -0.109621   0.014525   0.248231
  118  C 30  X    0.020904   0.059930  -0.026434  -0.004990   0.017152
  119  C 30  Y   -0.001700   0.011140   0.033704   0.040371   0.034506
  120  C 30  Z    0.084890  -0.041982   0.014444   0.025156   0.079559
  121  C 31  S    0.023778  -0.002097  -0.075984   0.052371  -0.135603
  122  C 31  X   -0.056915  -0.037122  -0.048421   0.005278  -0.104552
  123  C 31  Y   -0.054976  -0.032508  -0.032050  -0.006651  -0.063853
  124  C 31  Z    0.035350  -0.049717   0.044872  -0.090669   0.000123
  125  C 32  S   -0.141478   0.049006   0.286027  -0.112983  -0.012440
  126  C 32  X   -0.049580   0.085743  -0.034900   0.009175   0.043557
  127  C 32  Y    0.016641  -0.010037  -0.038209  -0.112532   0.002704
  128  C 32  Z    0.021095  -0.002950  -0.032523   0.023416   0.001524
  129  C 33  S    0.025979  -0.099795   0.249794  -0.200485  -0.074808
  130  C 33  X   -0.072393   0.014456   0.012784  -0.044572  -0.023332
  131  C 33  Y   -0.020475   0.003004  -0.073434  -0.050562  -0.034508
  132  C 33  Z   -0.023454   0.023424  -0.008183   0.029838   0.017758
  133  C 34  S   -0.050609  -0.117787  -0.031232  -0.186839  -0.195121
  134  C 34  X   -0.060117  -0.016065  -0.042939  -0.050675   0.001227
  135  C 34  Y   -0.026418   0.010698  -0.071331   0.046513   0.001363
  136  C 34  Z    0.022657   0.013666   0.084877  -0.054648   0.054620
  137  C 35  S    0.198531  -0.143166   0.055442   0.117733   0.005148
  138  C 35  X   -0.037073  -0.060242   0.036841   0.033421  -0.095028
  139  C 35  Y    0.064296   0.023296   0.063089  -0.012191   0.114257
  140  C 35  Z   -0.050111  -0.006476   0.068032  -0.000330  -0.012044
  141  C 36  S    0.236309  -0.081434   0.189251  -0.010905   0.138116
  142  C 36  X   -0.020233  -0.039613   0.069458  -0.026467  -0.067078
  143  C 36  Y   -0.023958   0.011633   0.010971  -0.063683  -0.032419
  144  C 36  Z   -0.074120  -0.022737   0.028270  -0.020119  -0.079761

                     11         12         13         14         15
                   -1.1354    -1.1149    -1.0912    -1.0901    -1.0267
                     A          A          A          A          A   
    1  C  1  S   -0.047511   0.060756   0.066643   0.220120  -0.123053
    2  C  1  X    0.100452   0.069925   0.053516   0.017779  -0.007882
    3  C  1  Y    0.030030   0.047144   0.071251   0.037693   0.026705
    4  C  1  Z   -0.049929   0.021998   0.093453   0.008074   0.102575
    5  C  2  S    0.199770   0.100625  -0.019810   0.169214  -0.077020
    6  C  2  X   -0.025107   0.008264  -0.006482  -0.037100   0.048692
    7  C  2  Y    0.021359   0.025702  -0.017434  -0.021880   0.062115
    8  C  2  Z   -0.075312   0.125566   0.123996   0.035485  -0.011620
    9  C  3  S   -0.077048  -0.052078   0.212563   0.059961   0.181365
   10  C  3  X    0.022802   0.135587   0.103616  -0.012878  -0.095028
   11  C  3  Y    0.032339  -0.029103   0.054257  -0.111142   0.022021
   12  C  3  Z    0.021654  -0.071562  -0.026741  -0.070173   0.050937
   13  C  4  S    0.027513   0.060885  -0.231331  -0.004274   0.107629
   14  C  4  X   -0.099120  -0.101871  -0.030393   0.062714   0.071081
   15  C  4  Y    0.060636   0.023500  -0.043595   0.040260   0.078840
   16  C  4  Z    0.033571  -0.015558  -0.022178   0.063383   0.096370
   17  C  5  S    0.010541  -0.201482  -0.116857   0.094496   0.288620
   18  C  5  X   -0.041964  -0.078258   0.126295  -0.050164   0.025062
   19  C  5  Y    0.064028  -0.050561   0.024090  -0.015356  -0.050496
   20  C  5  Z    0.030410  -0.002066   0.024108  -0.015930  -0.032471
   21  C  6  S   -0.015257   0.238452  -0.006846  -0.028780   0.015068
   22  C  6  X    0.010856  -0.050098  -0.036940   0.024415   0.008623
   23  C  6  Y   -0.092846  -0.025961  -0.089245  -0.084321   0.010604
   24  C  6  Z   -0.038120   0.061915   0.109287  -0.066021  -0.033757
   25  C  7  S   -0.210890  -0.016298  -0.174777   0.027810   0.066913
   26  C  7  X    0.067330   0.028274   0.002709  -0.013791   0.002097
   27  C  7  Y   -0.107326  -0.003184   0.012042   0.012006  -0.024283
   28  C  7  Z   -0.019793   0.130732  -0.046335  -0.063882  -0.014688
   29  C  8  S   -0.240805   0.064662  -0.159353   0.074601   0.059402
   30  C  8  X   -0.055244  -0.025269  -0.016680  -0.036823  -0.024287
   31  C  8  Y    0.084027   0.018646   0.028673   0.023745   0.027250
   32  C  8  Z    0.051068   0.070122  -0.088773  -0.094701  -0.014375
   33  C  9  S   -0.044932   0.113938   0.191461  -0.242038  -0.015078
   34  C  9  X   -0.015422   0.116767  -0.025972   0.053968  -0.015143
   35  C  9  Y   -0.012331  -0.024257  -0.119514  -0.113706  -0.079878
   36  C  9  Z    0.020163  -0.106414  -0.002395  -0.018999   0.007916
   37  C 10  S    0.058601  -0.091951  -0.047178  -0.280325  -0.224873
   38  C 10  X   -0.067420   0.084030   0.008898  -0.084191   0.039699
   39  C 10  Y    0.009060   0.060485  -0.086658   0.049682  -0.057691
   40  C 10  Z    0.018476  -0.049291   0.039182   0.041527   0.019486
   41  C 11  S    0.043541   0.086620  -0.188079  -0.074545  -0.060351
   42  C 11  X   -0.099124   0.027064  -0.039142  -0.049349  -0.010889
   43  C 11  Y    0.026777   0.009545   0.031742   0.084964   0.092919
   44  C 11  Z    0.032885  -0.048053   0.024040  -0.068094  -0.113137
   45  C 12  S   -0.060954   0.014017   0.140402   0.153705  -0.037690
   46  C 12  X   -0.127737  -0.051487  -0.031181   0.033557   0.017567
   47  C 12  Y    0.053890   0.042863  -0.060148   0.000678   0.080528
   48  C 12  Z   -0.008848   0.039091  -0.082573   0.039278   0.116123
   49  C 13  S   -0.014359  -0.089935   0.290025  -0.021670  -0.180407
   50  C 13  X   -0.069759  -0.120284  -0.023072   0.037153   0.074808
   51  C 13  Y   -0.052353   0.022142  -0.004391   0.082194  -0.052627
   52  C 13  Z   -0.047883  -0.041112   0.020338   0.043789  -0.006518
   53  C 14  S    0.086295   0.223390   0.086471  -0.075092  -0.095506
   54  C 14  X    0.011558  -0.082616   0.149526  -0.078524  -0.008532
   55  C 14  Y    0.022655  -0.039810   0.009947   0.021178  -0.179543
   56  C 14  Z    0.006278   0.015840   0.005556  -0.007315  -0.024885
   57  C 15  S    0.182398   0.034389   0.064646   0.004893   0.131954
   58  C 15  X   -0.017921   0.057257   0.017917   0.106809   0.013588
   59  C 15  Y   -0.013233  -0.005795  -0.006271   0.006497   0.050150
   60  C 15  Z    0.027509  -0.008218  -0.002585   0.015815   0.138861
   61  C 16  S    0.056517  -0.076538  -0.141672  -0.181961  -0.082156
   62  C 16  X    0.090404   0.051790   0.060037   0.021816  -0.006369
   63  C 16  Y    0.023719  -0.004346   0.090741   0.000366   0.092968
   64  C 16  Z   -0.026958  -0.053105   0.055124  -0.047366   0.118803
   65  C 17  S    0.051759   0.099969  -0.282158   0.032600  -0.219442
   66  C 17  X    0.043541   0.099641   0.085241  -0.033451  -0.042419
   67  C 17  Y    0.017951  -0.055292   0.019368  -0.102277  -0.073767
   68  C 17  Z   -0.005268  -0.054212  -0.054629  -0.029436  -0.026171
   69  C 18  S    0.189691   0.012573   0.034415   0.058207   0.164404
   70  C 18  X    0.006295   0.058267  -0.092984   0.016410  -0.019267
   71  C 18  Y   -0.021164   0.001891   0.001411  -0.010086   0.032031
   72  C 18  Z   -0.022995  -0.016057  -0.012542   0.009068  -0.122163
   73  C 19  S    0.276579  -0.179409  -0.116405  -0.057203   0.048849
   74  C 19  X    0.004153   0.014697  -0.025651   0.078437  -0.010698
   75  C 19  Y    0.015428  -0.060031   0.016212  -0.015582   0.065503
   76  C 19  Z    0.041742   0.027968  -0.050148   0.082235  -0.053287
   77  C 20  S    0.019510  -0.038121  -0.044743  -0.215020   0.087253
   78  C 20  X    0.123502  -0.074198  -0.045265   0.041388  -0.066483
   79  C 20  Y    0.060832  -0.003884   0.027048  -0.054319   0.081834
   80  C 20  Z   -0.026384  -0.025485  -0.051740   0.040091  -0.101517
   81  C 21  S    0.032951  -0.266331   0.026541  -0.012968   0.063653
   82  C 21  X   -0.005997   0.029711  -0.097837   0.041894   0.033754
   83  C 21  Y   -0.159639   0.007932   0.065244   0.057995  -0.054399
   84  C 21  Z   -0.025618  -0.002571  -0.084993   0.042464   0.028668
   85  C 22  S   -0.055664   0.203779   0.064037  -0.128296   0.286925
   86  C 22  X    0.051465  -0.055706   0.023256  -0.134771  -0.019294
   87  C 22  Y    0.056696   0.065203  -0.003506   0.027375  -0.027239
   88  C 22  Z   -0.034171  -0.005371   0.006298  -0.025040   0.022112
   89  C 23  S   -0.094125   0.020719   0.100377   0.184001   0.163273
   90  C 23  X   -0.058995   0.126548  -0.018874  -0.096032   0.088211
   91  C 23  Y    0.032582   0.036806  -0.083725   0.085142   0.035682
   92  C 23  Z   -0.007340  -0.076270   0.065988   0.005263  -0.058828
   93  C 24  S    0.001238  -0.130189  -0.176751   0.251977  -0.000567
   94  C 24  X   -0.011141   0.115992  -0.050287   0.037877   0.013075
   95  C 24  Y   -0.012703   0.021180  -0.142603  -0.079168  -0.074055
   96  C 24  Z    0.007408  -0.104944   0.021016  -0.006293  -0.009607
   97  C 25  S   -0.224267  -0.009632  -0.065436  -0.109173  -0.172131
   98  C 25  X   -0.095656  -0.025718  -0.064331   0.035796   0.017655
   99  C 25  Y   -0.003514   0.004947  -0.013821  -0.009567   0.005720
  100  C 25  Z    0.050234   0.011814  -0.073715   0.022701   0.041780
  101  C 26  S   -0.223019  -0.045163  -0.111576  -0.018438  -0.180069
  102  C 26  X    0.100982  -0.003778  -0.004902   0.072213  -0.019220
  103  C 26  Y   -0.004092  -0.004029  -0.009442  -0.005819   0.002257
  104  C 26  Z   -0.041957  -0.004707  -0.006650   0.081717  -0.030941
  105  C 27  S    0.209205  -0.057308   0.171772  -0.062978  -0.068830
  106  C 27  X    0.024349   0.012005   0.030700  -0.013851  -0.048379
  107  C 27  Y    0.028709  -0.016420  -0.013710   0.000242   0.062641
  108  C 27  Z    0.041395   0.139178  -0.057347  -0.108042   0.013381
  109  C 28  S   -0.036643  -0.084309   0.206548  -0.008527  -0.134442
  110  C 28  X   -0.112960   0.042395  -0.036440  -0.044120  -0.000555
  111  C 28  Y    0.039421  -0.041485   0.054886   0.055792   0.020317
  112  C 28  Z    0.046852   0.036376  -0.029601  -0.092662  -0.087251
  113  C 29  S   -0.212352  -0.028906  -0.011580  -0.153012   0.067907
  114  C 29  X   -0.071914   0.011642   0.004915  -0.008866  -0.004498
  115  C 29  Y   -0.100700  -0.024872  -0.000273   0.002012  -0.026729
  116  C 29  Z   -0.017798   0.127183   0.075211   0.027013   0.004530
  117  C 30  S    0.043952  -0.227968  -0.011029   0.012908   0.031559
  118  C 30  X    0.005074  -0.051916  -0.016520   0.039437  -0.007253
  119  C 30  Y   -0.094198   0.006655  -0.103766  -0.058544   0.012746
  120  C 30  Z    0.015012   0.074982   0.042128  -0.112094   0.033459
  121  C 31  S   -0.222434  -0.115554   0.014322  -0.173564   0.065847
  122  C 31  X    0.059582  -0.013818   0.033111  -0.002757   0.026809
  123  C 31  Y    0.084366  -0.000246   0.031479   0.016784   0.030045
  124  C 31  Z   -0.061703   0.057224   0.114340   0.071448   0.012000
  125  C 32  S    0.134724  -0.196081  -0.057860   0.090464  -0.126564
  126  C 32  X    0.002183  -0.084582   0.034058  -0.163053   0.014263
  127  C 32  Y    0.009234   0.039967   0.024482   0.004066  -0.170062
  128  C 32  Z   -0.010072   0.014632   0.007543  -0.008823   0.019622
  129  C 33  S   -0.032473   0.075946   0.053384   0.281570  -0.205883
  130  C 33  X    0.097652  -0.096854  -0.032731   0.025550  -0.065348
  131  C 33  Y   -0.044118  -0.037492   0.077220  -0.023471  -0.032453
  132  C 33  Z    0.055226  -0.027153  -0.044601  -0.009458  -0.000817
  133  C 34  S   -0.049039  -0.031952   0.175826   0.090438  -0.007506
  134  C 34  X    0.133871  -0.017939  -0.016273   0.034134   0.001568
  135  C 34  Y    0.062752  -0.024600  -0.017600  -0.060098   0.087610
  136  C 34  Z    0.001099   0.035526  -0.012191   0.090023  -0.119088
  137  C 35  S    0.224500   0.248821  -0.067568  -0.104055   0.049720
  138  C 35  X   -0.001575   0.019842  -0.080963   0.036027   0.013252
  139  C 35  Y   -0.006991   0.060649  -0.001852   0.031380   0.054160
  140  C 35  Z   -0.041698   0.025134  -0.069851   0.066709   0.045362
  141  C 36  S   -0.041840   0.266813   0.011717   0.042496   0.033246
  142  C 36  X    0.005429   0.027680  -0.022107   0.098917  -0.043107
  143  C 36  Y   -0.152507  -0.051570   0.064334   0.048951  -0.058699
  144  C 36  Z    0.029744   0.002917  -0.021168   0.087377  -0.037579

                     16         17         18         19         20
                   -1.0096    -0.9421    -0.9323    -0.8982    -0.8744
                     A          A          A          A          A   
    1  C  1  S   -0.132834   0.118627  -0.120040  -0.094271  -0.034305
    2  C  1  X    0.048960  -0.086229  -0.085788   0.070662  -0.130940
    3  C  1  Y   -0.015726  -0.043515  -0.042002   0.027744  -0.078335
    4  C  1  Z   -0.084913  -0.028945   0.045776  -0.004983  -0.052253
    5  C  2  S    0.038836  -0.167268  -0.035817  -0.013857  -0.072731
    6  C  2  X    0.006710  -0.027190   0.120285   0.013260   0.002789
    7  C  2  Y    0.014336  -0.068648   0.161398   0.010600   0.008937
    8  C  2  Z   -0.043416   0.065311   0.026899   0.106383  -0.150078
    9  C  3  S   -0.112948  -0.007399  -0.071300  -0.118586   0.015163
   10  C  3  X    0.018093   0.006799  -0.037112   0.068923  -0.200389
   11  C  3  Y    0.101749  -0.038369  -0.018916   0.001354  -0.027061
   12  C  3  Z    0.063831  -0.036841   0.008144  -0.021898   0.060759
   13  C  4  S   -0.165021  -0.092430  -0.052485   0.229055  -0.030795
   14  C  4  X   -0.035401  -0.034999   0.139885   0.014599   0.140676
   15  C  4  Y    0.056076   0.045965  -0.046404   0.050991  -0.016132
   16  C  4  Z    0.049315   0.049765  -0.018109   0.045928   0.037894
   17  C  5  S    0.015966  -0.047850   0.019110   0.062198   0.181232
   18  C  5  X   -0.016462  -0.007743  -0.015355  -0.191714   0.071911
   19  C  5  Y    0.152879   0.018527  -0.007010  -0.031485  -0.072807
[...]
   25  C  7  S    0.006074  -0.085601  -0.105249   0.030641   0.074211
   26  C  7  X    0.035117  -0.216939  -0.150237   0.074917   0.152683
   27  C  7  Y   -0.024778  -0.046454   0.002534   0.014237   0.104911
   28  C  7  Z    0.031782   0.034608   0.047684  -0.048622  -0.072757
   29  C  8  S    0.048899   0.018176  -0.036747   0.004021  -0.100299
   30  C  8  X    0.083384   0.037486   0.008729  -0.015735  -0.153879
   31  C  8  Y    0.131253  -0.007022  -0.111416   0.000728  -0.158676
   32  C  8  Z    0.014769  -0.058245  -0.013414  -0.024790  -0.014991
   33  C  9  S    0.057749  -0.025830  -0.043657   0.040764  -0.085281
   34  C  9  X    0.151137  -0.055968  -0.049586   0.031784  -0.125122
   35  C  9  Y    0.011529   0.026431   0.009648  -0.029501   0.000825
   36  C  9  Z    0.137715   0.003887   0.026026   0.066297  -0.161779
   37  C 10  S    0.008025  -0.053177  -0.065631  -0.046468   0.040994
   38  C 10  X   -0.002603  -0.079457  -0.044510  -0.020296   0.062715
   39  C 10  Y    0.063791  -0.130952  -0.125346  -0.027953  -0.015254
   40  C 10  Z    0.080351  -0.199393  -0.152913  -0.084000   0.179038
   41  C 11  S   -0.024080   0.061746   0.085128   0.022712   0.094277
   42  C 11  X   -0.094119   0.146982   0.108586   0.023186   0.066021
   43  C 11  Y   -0.060598   0.244001   0.123011  -0.016243   0.165404
   44  C 11  Z   -0.046516   0.223950   0.128512   0.032553   0.019163
   45  C 12  S   -0.042969  -0.040860   0.088683  -0.053315  -0.029420
   46  C 12  X   -0.046702  -0.063907   0.080234  -0.054582   0.049874
   47  C 12  Y   -0.095275  -0.082862   0.098469  -0.103505  -0.081255
   48  C 12  Z    0.038408   0.118204  -0.086763   0.094692   0.031422
   49  C 13  S   -0.006726   0.049210  -0.111423   0.071499  -0.021886
   50  C 13  X   -0.063104   0.053059  -0.092999   0.074110   0.019411
   51  C 13  Y   -0.029363   0.108231  -0.080007   0.025804  -0.022023
   52  C 13  Z    0.182643  -0.240333   0.158178  -0.074216   0.121511
   53  C 14  S    0.010900  -0.019003  -0.005062   0.031108   0.075955
   54  C 14  X   -0.008349  -0.042463   0.077760  -0.042513  -0.003610
   55  C 14  Y    0.052338  -0.003993   0.036814  -0.048341   0.021459
   56  C 14  Z   -0.143030   0.152196   0.045443  -0.077284  -0.244842
   57  C 15  S    0.046886  -0.011907  -0.010703   0.024722   0.136777
   58  C 15  X   -0.001083   0.050149  -0.034460   0.025739  -0.025572
   59  C 15  Y    0.150857  -0.076187  -0.010046   0.080674   0.263872
   60  C 15  Z   -0.030209   0.037507   0.012948  -0.052801  -0.049093
   61  C 16  S    0.024459   0.062040  -0.085163   0.022270  -0.096136
   62  C 16  X   -0.094847  -0.146670   0.108296  -0.022715   0.067074
   63  C 16  Y    0.061920   0.244131  -0.122406  -0.017214  -0.168044
   64  C 16  Z   -0.047625  -0.223943   0.128096  -0.032366   0.017683
   65  C 17  S   -0.008203  -0.053199   0.065645  -0.046775  -0.043074
   66  C 17  X   -0.002390   0.079461  -0.044306   0.020715   0.065039
   67  C 17  Y   -0.064436  -0.130923   0.125354  -0.027757   0.013325
   68  C 17  Z    0.081112   0.198963  -0.152927   0.084915   0.187902
   69  C 18  S   -0.047028  -0.011433   0.010641   0.024211  -0.134502
   70  C 18  X   -0.001375  -0.050013  -0.034505  -0.025855  -0.026058
   71  C 18  Y   -0.151580  -0.074901   0.009930   0.079419  -0.259711
   72  C 18  Z   -0.030612  -0.037279   0.012875   0.052590  -0.046241
   73  C 19  S   -0.006852  -0.035723  -0.004691   0.083353   0.101460
   74  C 19  X    0.031190  -0.059448  -0.020214   0.085146   0.075412
   75  C 19  Y   -0.038395   0.053416  -0.039436  -0.018436  -0.035182
   76  C 19  Z   -0.053314   0.087117   0.079856  -0.022602  -0.076448
   77  C 20  S   -0.009371   0.023714  -0.043692   0.073852  -0.043013
   78  C 20  X   -0.019986   0.031876   0.016275  -0.026943  -0.058897
   79  C 20  Y    0.091442  -0.037546   0.080501  -0.197320   0.018844
   80  C 20  Z    0.111254  -0.047938   0.096571  -0.140427   0.020094
   81  C 21  S    0.015806   0.035987   0.105468  -0.096101  -0.080009
   82  C 21  X    0.052959   0.066040   0.180641  -0.095603  -0.097187
   83  C 21  Y    0.024547  -0.003669   0.067793  -0.024585   0.002481
   84  C 21  Z   -0.089376   0.004492  -0.176412   0.099050   0.047277
   85  C 22  S    0.032311  -0.000838   0.060662  -0.061153  -0.015976
   86  C 22  X    0.017264   0.013070   0.029815  -0.082960  -0.008073
   87  C 22  Y   -0.111299   0.001278  -0.056580   0.060979  -0.025559
   88  C 22  Z   -0.246518  -0.052137  -0.141128   0.171736   0.054897
   89  C 23  S   -0.009116   0.012253  -0.008394  -0.090026  -0.020376
   90  C 23  X    0.016059  -0.025305   0.013986   0.045663   0.038857
   91  C 23  Y    0.089256  -0.009930   0.010503   0.045011   0.011871
   92  C 23  Z    0.136622  -0.012598   0.056932  -0.040020   0.063140
   93  C 24  S   -0.058092  -0.025715   0.043727   0.041646   0.086657
   94  C 24  X    0.151495   0.055522  -0.049558  -0.032698  -0.128009
   95  C 24  Y   -0.011356   0.026465  -0.009593  -0.029714   0.000745
   96  C 24  Z    0.137808  -0.004376   0.026166  -0.067618  -0.165940
   97  C 25  S    0.024837  -0.001796   0.021835  -0.094712  -0.012132
   98  C 25  X   -0.017177   0.006217  -0.007427   0.113342  -0.007617
   99  C 25  Y   -0.198985   0.005338   0.000202   0.188681  -0.004006
  100  C 25  Z    0.011783  -0.011982  -0.041619  -0.049873  -0.002949
  101  C 26  S   -0.025018  -0.001636  -0.021793  -0.094651   0.014293
  102  C 26  X   -0.017191  -0.006123  -0.007352  -0.112918  -0.004635
  103  C 26  Y    0.198977   0.004530  -0.000174   0.188748  -0.001829
  104  C 26  Z    0.012052   0.012030  -0.041473   0.050107  -0.004775
  105  C 27  S   -0.011834  -0.003878   0.094014  -0.125141   0.065797
  106  C 27  X   -0.011950  -0.005306  -0.164905   0.176030  -0.074962
  107  C 27  Y   -0.049822  -0.031212  -0.100177   0.132387  -0.032180
  108  C 27  Z    0.020474   0.017004  -0.015265  -0.018958   0.013907
  109  C 28  S   -0.012929  -0.003060  -0.056047   0.158634  -0.017285
  110  C 28  X    0.038697   0.019770   0.082350  -0.108892   0.019867
  111  C 28  Y    0.109893   0.059699   0.126575  -0.259518   0.015006
  112  C 28  Z    0.017261   0.013482   0.028106  -0.064513  -0.011086
  113  C 29  S   -0.006500  -0.085799   0.105291   0.030595  -0.077060
  114  C 29  X    0.036476   0.216908  -0.150063  -0.074344   0.157658
  115  C 29  Y    0.024458  -0.046444  -0.002572   0.013589  -0.108833
  116  C 29  Z    0.031627  -0.034822   0.047510   0.048440  -0.073479
  117  C 30  S    0.065210   0.076648  -0.120326   0.019527  -0.055289
  118  C 30  X   -0.285688  -0.219960   0.164279   0.012859   0.056778
  119  C 30  Y    0.013581   0.041784   0.008030  -0.068518   0.040986
  120  C 30  Z   -0.113059  -0.056543   0.019893   0.028986   0.068923
  121  C 31  S   -0.048846   0.018278   0.036765   0.004545   0.104447
  122  C 31  X    0.083071  -0.037718   0.009039   0.014892  -0.159840
  123  C 31  Y   -0.131290  -0.006874   0.111207   0.001787   0.166471
  124  C 31  Z    0.014994   0.058302  -0.013326   0.024709  -0.014201
  125  C 32  S   -0.010942  -0.018892   0.004712   0.030773  -0.073450
  126  C 32  X   -0.008198   0.042405   0.077878   0.042641  -0.002759
  127  C 32  Y   -0.052504  -0.003676  -0.036833  -0.048650  -0.020139
  128  C 32  Z   -0.143931  -0.151681   0.044369   0.076402  -0.235188
  129  C 33  S    0.007044   0.049042   0.111660   0.071941   0.021530
  130  C 33  X   -0.063380  -0.052457  -0.092984  -0.074330   0.019079
  131  C 33  Y    0.029915   0.108033   0.080394   0.025947   0.023245
  132  C 33  Z    0.183958   0.239076   0.159019   0.075020   0.117945
  133  C 34  S    0.042827  -0.041029  -0.088761  -0.053340   0.025969
  134  C 34  X   -0.046495   0.063984   0.080365   0.054931   0.053070
  135  C 34  Y    0.095221  -0.083366  -0.098650  -0.103328   0.075494
  136  C 34  Z    0.038041  -0.118373  -0.087097  -0.094715   0.028615
  137  C 35  S    0.006717  -0.035868   0.004163   0.083395  -0.099209
  138  C 35  X    0.031303   0.059600  -0.019587  -0.085630   0.071579
  139  C 35  Y    0.038533   0.053262   0.039971  -0.018661   0.031627
  140  C 35  Z   -0.053503  -0.087226   0.079184   0.022879  -0.069818
  141  C 36  S   -0.015708   0.036327  -0.105225  -0.096321   0.079705
  142  C 36  X    0.052753  -0.066960   0.180275   0.095727  -0.095736
  143  C 36  Y   -0.024593  -0.003440  -0.068039  -0.024614  -0.000504
  144  C 36  Z   -0.089584  -0.003423  -0.176093  -0.099365   0.044801

                     81         82
                   -0.0385    -0.0342
                     A          A   
    1  C  1  S    0.052954   0.137990
    2  C  1  X    0.015866   0.069705
    3  C  1  Y   -0.134520  -0.101187
    4  C  1  Z    0.068991   0.092151
    5  C  2  S    0.025601  -0.117573
    6  C  2  X    0.029625  -0.121841
    7  C  2  Y    0.001955   0.104188
    8  C  2  Z   -0.039794   0.015025
    9  C  3  S   -0.051168  -0.160053
   10  C  3  X   -0.037451  -0.128296
   11  C  3  Y    0.080861   0.158810
   12  C  3  Z   -0.062159  -0.229301
   13  C  4  S    0.070845   0.048590
   14  C  4  X   -0.085643  -0.086126
   15  C  4  Y   -0.158955  -0.130034
   16  C  4  Z    0.112797   0.052221
   17  C  5  S    0.019209   0.088181
   18  C  5  X    0.030287   0.051397
   19  C  5  Y    0.006575  -0.061583
   20  C  5  Z    0.105918   0.188877
   21  C  6  S   -0.020930   0.018025
   22  C  6  X   -0.018303   0.010252
   23  C  6  Y   -0.010627  -0.034240
   24  C  6  Z    0.044257  -0.056770
   25  C  7  S    0.060146  -0.022569
   26  C  7  X    0.116099  -0.077746
   27  C  7  Y    0.089116  -0.057577
   28  C  7  Z   -0.001362   0.002914
   29  C  8  S   -0.090580   0.054009
   30  C  8  X   -0.139647   0.081409
   31  C  8  Y   -0.181483   0.096222
   32  C  8  Z    0.019344   0.000900
   33  C  9  S   -0.016115   0.085250
   34  C  9  X   -0.057923   0.064710
   35  C  9  Y   -0.038350  -0.036085
   36  C  9  Z   -0.090040   0.158975
   37  C 10  S    0.046478  -0.020886
   38  C 10  X    0.049537  -0.055967
   39  C 10  Y    0.056685   0.009186
   40  C 10  Z    0.213252  -0.024365
   41  C 11  S    0.037352   0.003377
   42  C 11  X    0.020965  -0.048820
   43  C 11  Y    0.063849  -0.011198
   44  C 11  Z   -0.032404   0.013537
   45  C 12  S    0.080475  -0.048979
   46  C 12  X    0.074721  -0.038825
   47  C 12  Y    0.130725  -0.054614
   48  C 12  Z   -0.065201   0.021941
   49  C 13  S   -0.000629   0.018444
   50  C 13  X   -0.020116   0.034289
   51  C 13  Y   -0.023602   0.009916
   52  C 13  Z   -0.075584   0.039888
   53  C 14  S   -0.059969   0.049003
   54  C 14  X    0.023965  -0.012285
   55  C 14  Y   -0.024807  -0.025890
   56  C 14  Z    0.244150  -0.092309
   57  C 15  S   -0.050861   0.052588
   58  C 15  X   -0.012859   0.004299
   59  C 15  Y   -0.088662   0.045981
   60  C 15  Z    0.068089  -0.007137
   61  C 16  S    0.033676  -0.002890
   62  C 16  X   -0.018685  -0.049352
   63  C 16  Y    0.057457   0.011627
   64  C 16  Z    0.032970   0.013452
   65  C 17  S    0.044819   0.020973
   66  C 17  X   -0.046945  -0.056556
   67  C 17  Y    0.056945  -0.009820
   68  C 17  Z   -0.205856  -0.024129
   69  C 18  S   -0.056593  -0.052660
   70  C 18  X    0.011926   0.004201
   71  C 18  Y   -0.099352  -0.046417
   72  C 18  Z   -0.070039  -0.007278
   73  C 19  S   -0.084912   0.121004
   74  C 19  X   -0.129416   0.104825
   75  C 19  Y    0.103194  -0.088082
   76  C 19  Z    0.186927  -0.094925
   77  C 20  S    0.068724  -0.048592
   78  C 20  X    0.082982  -0.087065
   79  C 20  Y   -0.157993   0.130028
   80  C 20  Z   -0.112026   0.051786
   81  C 21  S    0.032975  -0.064407
   82  C 21  X    0.067103  -0.017190
   83  C 21  Y   -0.048665   0.055220
   84  C 21  Z   -0.092005   0.037886
   85  C 22  S    0.018509  -0.089366
   86  C 22  X   -0.030354   0.051352
   87  C 22  Y    0.005773   0.062371
   88  C 22  Z   -0.103121   0.191459
   89  C 23  S   -0.051612   0.161197
   90  C 23  X    0.038554  -0.129288
   91  C 23  Y    0.080965  -0.160071
   92  C 23  Z    0.063932  -0.231475
   93  C 24  S   -0.013036  -0.086445
   94  C 24  X    0.053116   0.065358
   95  C 24  Y   -0.038215   0.036453
   96  C 24  Z    0.083879   0.159934
   97  C 25  S   -0.048450  -0.031929
   98  C 25  X    0.066872  -0.051070
   99  C 25  Y    0.130391   0.219671
  100  C 25  Z   -0.043941  -0.091245
  101  C 26  S   -0.047692   0.032118
  102  C 26  X   -0.067138  -0.050863
  103  C 26  Y    0.129437  -0.219544
  104  C 26  Z    0.043442  -0.091077
  105  C 27  S    0.028543   0.116646
  106  C 27  X   -0.032830  -0.120498
  107  C 27  Y    0.000539  -0.103754
  108  C 27  Z    0.040503   0.014614
  109  C 28  S    0.052046  -0.138300
  110  C 28  X   -0.014896   0.069387
  111  C 28  Y   -0.133738   0.101419
  112  C 28  Z   -0.069245   0.093063
  113  C 29  S    0.057020   0.022941
  114  C 29  X   -0.109913  -0.077872
  115  C 29  Y    0.085045   0.057889
  116  C 29  Z   -0.001746   0.003739
  117  C 30  S   -0.023057  -0.017133
  118  C 30  X    0.020434   0.009267
  119  C 30  Y   -0.008895   0.033780
  120  C 30  Z   -0.041772  -0.057386
  121  C 31  S   -0.086784  -0.054632
  122  C 31  X    0.133636   0.081594
  123  C 31  Y   -0.175593  -0.096587
  124  C 31  Z   -0.020063   0.001002
  125  C 32  S   -0.062750  -0.048330
  126  C 32  X   -0.024389  -0.012116
  127  C 32  Y   -0.025613   0.025308
  128  C 32  Z   -0.253869  -0.091354
  129  C 33  S   -0.000265  -0.018230
  130  C 33  X    0.021236   0.033609
  131  C 33  Y   -0.022970  -0.010128
  132  C 33  Z    0.079841   0.040148
  133  C 34  S    0.082068   0.049159
  134  C 34  X   -0.073010  -0.038971
  135  C 34  Y    0.134367   0.054903
  136  C 34  Z    0.066803   0.022061
  137  C 35  S   -0.089552  -0.119771
  138  C 35  X    0.132850   0.103200
  139  C 35  Y    0.104704   0.087280
  140  C 35  Z   -0.190244  -0.093141
  141  C 36  S    0.036726   0.063229
  142  C 36  X   -0.071509  -0.015675
  143  C 36  Y   -0.048760  -0.055192
  144  C 36  Z    0.094458   0.036257

     ----------------------------------------------------------------
     PROPERTY VALUES FOR THE RHF   SELF-CONSISTENT FIELD WAVEFUNCTION
     ----------------------------------------------------------------

                    -------------
                    MOPAC CHARGES
                    -------------
         ATOM NO.   TYPE          CHARGE        ATOM  ELECTRON DENSITY
           1         C              0.0125          3.9875
           2         C             -0.0924          4.0924
           3         C              0.0041          3.9959
           4         C             -0.0197          4.0197
           5         C              0.0080          3.9920
           6         C              0.0668          3.9332
           7         C             -0.0352          4.0352
           8         C             -0.0051          4.0051
           9         C             -0.0437          4.0437
          10         C             -0.0000          4.0000
          11         C              0.0116          3.9884
          12         C             -0.0047          4.0047
          13         C             -0.0419          4.0419
          14         C              0.0476          3.9524
          15         C             -0.0122          4.0122
          16         C              0.0117          3.9883
          17         C             -0.0000          4.0000
          18         C             -0.0122          4.0122
          19         C             -0.0116          4.0116
          20         C             -0.0192          4.0192
          21         C              0.1191          3.8809
          22         C              0.0074          3.9926
          23         C              0.0048          3.9952
          24         C             -0.0435          4.0435
          25         C             -0.0033          4.0033
          26         C             -0.0037          4.0037
          27         C             -0.0914          4.0914
          28         C              0.0118          3.9882
          29         C             -0.0353          4.0353
          30         C              0.0666          3.9334
          31         C             -0.0049          4.0049
          32         C              0.0474          3.9526
          33         C             -0.0419          4.0419
          34         C             -0.0049          4.0049
          35         C             -0.0118          4.0118
          36         C              0.1190          3.8810

          ---------------------
          ELECTROSTATIC MOMENTS
          ---------------------

 POINT   1           X           Y           Z (ANGS)      CHARGE
                 0.000000    0.000000    0.000000        0.00 (A.U.)
         DX          DY          DZ         /D/  (DEBYE)
    -0.010584    1.069424   -0.006415    1.069496
 ...... END OF PROPERTY EVALUATION ......
 CPU     0: STEP CPU TIME=     0.00 TOTAL CPU TIME=          0.8 (      0.0 MIN)
 TOTAL WALL CLOCK TIME=          1.2 SECONDS, CPU UTILIZATION IS    64.21%
  $VIB   
          IVIB=   0 IATOM=   0 ICOORD=   0 E=     -155.6070235424
 -3.253360876E-04-2.229131881E-04 4.869320341E-04 3.734535968E-04 1.861766211E-04
 -5.378805286E-04 4.432987760E-04 4.357589221E-05-2.469995928E-04 3.858502119E-04
 -1.901862406E-04 2.367658251E-04-2.899586042E-04-1.302963414E-04 2.527345879E-04
 -4.325585081E-05 3.412382373E-05-9.593675153E-06 5.800852118E-05-2.380040279E-05
 -2.233163787E-06-5.796216416E-05 2.265601953E-05-3.424840096E-05 4.387691297E-05
 -1.872983316E-04 1.109849113E-04-7.863876474E-05-1.179459713E-05 1.370377873E-04
 -9.246883539E-05 1.688262249E-05-7.882812545E-05 2.078309957E-05-2.240260080E-05
  8.717022331E-05 3.678192044E-04 4.531477229E-05-8.214420674E-05-3.789269748E-04
  6.280264626E-05 1.290538163E-04 9.654763665E-06 8.419029396E-05 6.948582118E-05
 -7.200064517E-05 2.027346574E-04 1.156663441E-04 2.061366280E-04-9.941626936E-05
 -1.800134025E-04 5.452026477E-05 1.118269362E-04-8.885338184E-05 4.353603150E-04
 -3.155056459E-04 4.191131905E-04-4.372385066E-04-9.120834542E-05 3.772009083E-05
 -1.718949467E-04 4.385059512E-04-9.257280014E-05 1.627912592E-04-9.240970905E-05
 -2.978612610E-04-1.214080562E-04-6.432203523E-05 2.867638169E-04-1.708541842E-04
  4.128638505E-05-3.647065410E-04 5.062772205E-05 1.213550457E-04 1.025454551E-04
  1.477781132E-04-6.276201132E-05-6.847298778E-05-3.868729971E-04 2.608037323E-04
  4.079682355E-04 2.264018605E-04-3.796244954E-04-5.712525860E-04-1.874896641E-04
 -9.655113678E-05 1.389613810E-04-3.311962389E-05 1.239627109E-05-3.925750416E-06
  1.271590679E-04 1.953032411E-04-1.208511875E-04 1.941967389E-04 3.485901110E-05
 -2.948964943E-04-3.064702558E-04 1.467633633E-05 2.646212219E-04 4.077771116E-05
 -8.767853240E-05-4.142360448E-05-3.228686556E-04-2.843766323E-04-1.713813508E-04
  1.282700500E-04 4.330762563E-04 4.614298875E-06
 -1.058449232E-02 1.069424276E+00-6.414929752E-03
 ......END OF GEOMETRY SEARCH......
 CPU     0: STEP CPU TIME=     0.00 TOTAL CPU TIME=          0.8 (      0.0 MIN)
 TOTAL WALL CLOCK TIME=          1.3 SECONDS, CPU UTILIZATION IS    63.65%
                580000  WORDS OF DYNAMIC MEMORY USED
 EXECUTION OF GAMESS TERMINATED NORMALLY 21:10:04 27-MAY-2023    
 DDI: 263640 bytes (0.3 MB / 0 MWords) used by master data server.

 ----------------------------------------
 CPU timing information for all processes
 ========================================
 0: 0.562500 + 0.265625 = 0.828125
 1: 0.750000 + 0.078125 = 0.828125
 2: 0.406250 + 0.578125 = 0.984375
 3: 0.359375 + 0.468750 = 0.828125
 ----------------------------------------
           Disk usage (in bytes)       
 ========================================
 ----------------------------------------
            Local date and time          
 ========================================
27.05.2023 - 21:10:04,35                          
