          *******************************************************
          *                                                     *
          *          GAMESS VERSION = 30 SEP 2022 (R2)          *
          *                                                     *
          *              doi.org/10.1063/5.0005188              *
          *                                                     *
          *************** 64 BIT WINDOWS VERSION ****************

  GAMESS HAS BEEN MADE POSSIBLE WITH IMPORTANT CONTRIBUTIONS FROM
  THE FOLLOWING INDIVIDUALS (IN ALPHABETICAL ORDER):

     IVANA ADAMOVIC, CHRISTINE AIKENS, TOMOKO AKAMA,
     MELISA ALKAN, YURI ALEXEEV, YURIKO AOKI, POOJA ARORA,
     TOSHIO ASADA, ANDREY ASADCHEV, KIM K. BALDRIDGE,
     PRADIPTA BANDYOPADHYAY, TAYLOR A. BARNES, MARIA BARYSZ,
     ROB BELL, JONATHAN BENTZ, COLLEEN BERTONI,
     JERRY A. BOATZ, BRETT BODE, KURT BRORSEN, KURT R. BRORSEN,
     LAIMUTIS BYTAUTAS, CALEB CARLIN, LAURA CARRINGTON,
     GALINA CHABAN, BENOIT CHAMPAGNE, WEI CHEN, MAHITO CHIBA,
     DAN CHIPMAN, CHEOL HO CHOI, TANNER CULPITT,
     DIPAYAN DATTA, PAUL DAY, ALBERT DEFUSCO,
     NUWAN DESILVA, J. EMILIANO DEUSTUA,
     TIM DUDLEY, MICHEL DUPUIS, STEVEN T. ELBERT,
     DMITRI FEDOROV, KATHERINE FERRERAS, MICHAEL FILATOV,
     ALEX FINDLATER,GRAHAM FLETCHER, MARK FREITAG,
     CHRISTIAN FRIEDL, DAVID GARMER, 
     IGOR S. GERASIMOV, KURT GLAESEMANN,
     MARK S. GORDON, JEFFREY GOUR, FENG LONG GU,
     EMILIE B. GUIDEZ, ANASTASIA GUNINA, SHARON HAMMES-SCHIFFER,
     MASATAKE HARUTA, KIMIHIKO HIRAO, YASUHIRO IKABATA,
     TZVETELIN IORDANOV, STEPHAN IRLE, KAZUYA ISHIMURA,
     JOE IVANIC, FRANK JENSEN, JAN H. JENSEN, VISVALDAS KAIRYS,
     MUNEAKI KAMIYA, MICHIO KATOUDA, NAOAKI KAWAKAMI, DAN KEMP,
     BERNARD KIRTMAN, KAZUO KITAURA, MARIUSZ KLOBUKOWSKI,
     MASATO KOBAYASHI, KONSTANTIN KOMAROV, PRAKASHAN KORAMBATH,
     JACEK KORCHOWIEC, SHIRO KOSEKI, KAROL KOWALSKI,
     JIMMY KROMANN, STANISLAW KUCHARSKI, HENRY KURTZ,
     SAROM SOK LEANG, SEUNGHOON LEE, HUI LI, SHUHUA LI, WEI LI,
     JESSE LUTZ, ALEKSANDR O. LYKHIN, MARCIN MAKOWSKI,
     JOANI MATO, NIKITA MATSUNAGA, BENEDETTA MENNUCCI,
     GRANT MERRILL, NORIYUKI MINEZAWA, VLADIMIR MIRONOV,
     EISAKU MIYOSHI, JOHN A. MONTGOMERY JR., HIROTOSHI MORI,
     JONATHAN MULLIN, MONIKA MUSIAL, SHIGERU NAGASE,
     TAKESHI NAGATA, HIROMI NAKAI, TAKAHITO NAKAJIMA,
     YUYA NAKAJIMA, HARUYUKI NAKANO, HIROYA NAKATA, SEAN NEDD,
     HEATHER NETZLOFF, KIET A. NGUYEN, YOSHIO NISHIMOTO,
     BOSILJKA NJEGIC, RYAN OLSON, MIKE PAK, ROBERTO PEVERATI,
     BUU PHAM, PIOTR PIECUCH, ANNA POMOGAEVA, DAVID POOLE,
     SPENCER PRUITT, OLIVIER QUINET, LUKE ROSKOP,
     KLAUS RUEDENBERG, ANDREW SAND, TOSAPORN SATTASATHUCHANA,
     NOZOMI SAWADA, MICHAEL W. SCHMIDT, PATRICK E. SCHNEIDER,
     JUNJI SEINO, PRACHI SHARMA, JUN SHEN, JIM SHOEMAKER,
     YINAN SHU, DEJUN SI, JONATHAN SKONE, LYUDMILA SLIPCHENKO,
     TONY SMITH, JIE SONG, MARK SPACKMAN, CASPER STEINMANN,
     WALT STEVENS, PEIFENG SU, SHUJUN SU, CHET SWALINA,
     CHINAMI TAKASHIMA, TETSUYA TAKETSUGU, ZHEN TAO,
     NANDUN THELLAMUREGE, SEIKEN TOKURA, JACOPO TOMASI,
     TSUGUKI TOUMA, TAKAO TSUNEDA, HIROAKI UMEDA,
     JORGE LUIS GALVEZ VALLEJO, YALI WANG, SIMON WEBB,
     AARON WEST, THERESA L. WINDUS, MARTA WLOCH,
     PENG XU, KIYOSHI YAGI, SUSUMU YANAGISAWA, YANG YANG,
     SOOHAENG YOO, TAKESHI YOSHIKAWA, FEDERICO ZAHARIEV,
     TOBY ZENG

  WHO ARE SUPPORTED BY THEIR INSTITUTION/UNIVERSITY/COMPANY/GROUP
  (IN ALPHABETICAL ORDER):

     EP ANALYTICS,
     FACULTES UNIVERSITAIRES NOTRE-DAME DE LA PAIX,
     INSTITUTE FOR MOLECULAR SCIENCE, IOWA STATE UNIVERSITY,
     JACKSON STATE UNIVERSITY, JOHANNES KEPLER UNIVERSITY LINZ,
     KYUNGPOOK NATIONAL UNIVERSITY
     KYUSHU UNIVERSITY, MICHIGAN STATE UNIVERSITY,
     MIE UNIVERSITY, THE MOLECULAR SCIENCES SOFTWARE INSTITUTE,
     MOSCOW STATE UNIVERSITY,
     N. COPERNICUS UNIVERSITY, NAGOYA UNIVERSITY,
     NANJING UNIVERSITY, NAT. INST. OF ADVANCED INDUSTRIAL
     SCIENCE AND TECHNOLOGY, NATIONAL INST. OF STANDARDS AND
     TECHNOLOGY, NESMEYANOV INSTITUTE OF ORGANOELEMENT COMPOUNDS
     OF RUSSIAN ACADEMY OF SCIENCES, OSAKA PREFECTURE UNIVERSITY,
     PENNSYLVANIA STATE UNIVERSITY, TOKYO INSTITUTE OF TECHNOLOGY,
     UNIVERSITY OF AARHUS, UNIVERSITY OF ALBERTA,
     UNIVERSITY OF CALIFORNIA AT SANTA BARBARA,
     UNIVERSITY OF COPENHAGEN, UNIVERSITY OF IOWA,
     UNIVERSITY OF MEMPHIS, UNIVERSITY OF MINNESOTA,
     UNIVERSITY OF NEBRASKA, UNIVERSITY OF NEW ENGLAND,
     UNIVERSITY OF NOTRE DAME, UNIVERSITY OF PISA,
     UNIVERSITY OF SILESIA, UNIVERSITY OF TOKYO,
     UNIVERSITY OF ZURICH, WASEDA UNIVERSITY,
     YALE UNIVERSITY

  GAMESS SOFTWARE MANAGEMENT TEAM FOR THIS RELEASE:
     MARK S. GORDON (TEAM LEAD),
     BRETT BODE (SENIOR ADVISOR),
     GIUSEPPE BARCA,
     COLLEEN BERTONI,
     KRISTOPHER KEIPERT (ADVISOR),
     SAROM S. LEANG (DEVELOPMENT LEAD),
     BUU PHAM,
     JACKSON HAYES (WEBSITE ADMINISTRATOR),
     PENG XU


 PARALLEL VERSION RUNNING ON        2 PROCESSORS IN        2 NODES.

 EXECUTION OF GAMESS BEGUN 21:10:24 27-MAY-2023    

            ECHO OF THE FIRST FEW INPUT CARDS -
 INPUT CARD>! (Energy/Geometry) PM3                                                         
 INPUT CARD> $CONTRL                                                                        
 INPUT CARD>COORD=UNIQUE                                                                    
 INPUT CARD>ICHARG=0                                                                        
 INPUT CARD>MAXIT=200                                                                       
 INPUT CARD>MULT=1                                                                          
 INPUT CARD>RUNTYP=OPTIMIZE                                                                 
 INPUT CARD>SCFTYP=RHF                                                                      
 INPUT CARD>UNITS=ANGS                                                                      
 INPUT CARD>! DFTTYP=PBE                                                                    
 INPUT CARD> $END                                                                           
 INPUT CARD> $DFT                                                                           
 INPUT CARD>METHOD=GRID                                                                     
 INPUT CARD> $END                                                                           
 INPUT CARD> $BASIS                                                                         
 INPUT CARD>! EXTFIL=.T.                                                                    
 INPUT CARD>! GBASIS=GEGSSBAS                                                               
 INPUT CARD>! NGAUSS=6                                                                      
 INPUT CARD>GBASIS=PM3                                                                      
 INPUT CARD>! NDFUNC=1                                                                      
 INPUT CARD>! NPFUNC=1                                                                      
 INPUT CARD> $END                                                                           
 INPUT CARD> $SCF                                                                           
 INPUT CARD>DAMP=.F.                                                                        
 INPUT CARD>DEM=.F.                                                                         
 INPUT CARD>DIIS=.F.                                                                        
 INPUT CARD>DIRSCF=.T.                                                                      
 INPUT CARD>EXTRAP=.T.                                                                      
 INPUT CARD>RSTRCT=.F.                                                                      
 INPUT CARD>SHIFT=.F.                                                                       
 INPUT CARD>SOSCF=.T.                                                                       
 INPUT CARD> $END                                                                           
 INPUT CARD> $STATPT                                                                        
 INPUT CARD>METHOD=QA                                                                       
 INPUT CARD>NSTEP=100                                                                       
 INPUT CARD>OPTTOL=0.001                                                                    
 INPUT CARD> $END                                                                           
 INPUT CARD> $GUESS                                                                         
 INPUT CARD>GUESS=HUCKEL                                                                    
 INPUT CARD> $END                                                                           
 INPUT CARD> $SYSTEM                                                                        
 INPUT CARD>MWORDS=10                                                                       
 INPUT CARD> $END                                                                           
 INPUT CARD> $DATA                                                                          
 INPUT CARD>C40 FULLERENE                                                                   
 INPUT CARD>C1                                                                              
 INPUT CARD>C	6.0	3.9004	0.2329	-0.6476                                                     
 INPUT CARD>C	6.0	2.9728	-0.5652	-1.3038                                                    
 INPUT CARD>C	6.0	-0.9948	-1.922	-0.9113                                                    
 INPUT CARD>C	6.0	0.3087	-1.628	-1.2581                                                     
     10000000 WORDS OF MEMORY AVAILABLE

     BASIS OPTIONS
     -------------
     GBASIS=PM3          IGAUSS=       0      POLAR=NONE    
     NDFUNC=       0     NFFUNC=       0     DIFFSP=       F
     NPFUNC=       0      DIFFS=       F     BASNAM=        


     RUN TITLE
     ---------
 C40 FULLERENE                                                                   

 THE POINT GROUP OF THE MOLECULE IS C1      
 THE ORDER OF THE PRINCIPAL AXIS IS     0

 ATOM      ATOMIC                      COORDINATES (BOHR)
           CHARGE         X                   Y                   Z
 C           6.0     7.3706872425        0.4401171825       -1.2237865496
 C           6.0     5.6177774163       -1.0680731283       -2.4638247428
 C           6.0    -1.8798994126       -3.6320533484       -1.7221072926
 C           6.0     0.5833584124       -3.0764739080       -2.3774642652
 C           6.0     6.0928545296        2.6739622726       -1.3634373001
 C           6.0     4.0130221075        2.6790645328       -2.9158471991
 C           6.0    -3.5547635555       -0.0933524638       -3.4723715024
 C           6.0    -1.0705297720        0.8734313515       -3.7102880043
 C           6.0     1.1035999768       -0.7730869016       -3.7494053322
 C           6.0     3.5952036916        0.1719650649       -3.5916132123
 C           6.0    -4.0001719708       -2.5944048085       -2.8037864480
 C           6.0     4.9765933887        3.0825210312        0.8966749812
 C           6.0     5.6183443341        1.0848916896        2.4025976208
 C           6.0     2.5195716594        3.8682690969        0.7158282041
 C           6.0     0.6011218367        3.1541416461        2.4012748126
 C           6.0    -1.8814111934        3.6915797170        1.7882477022
 C           6.0    -4.9830184570        3.0951821953       -0.8845807349
 C           6.0    -2.5106899473        3.9111658768       -0.8159836815
 C           6.0    -0.5776892344        3.2856665749       -2.5140914541
 C           6.0     1.9008753710        3.8102545090       -1.8961510561
 C           6.0    -5.6449894705        1.1194736751       -2.4129911137
 C           6.0     7.3799468999       -0.4858485514        1.2196291525
 C           6.0     6.1177989127       -2.7015522720        1.4373255863
 C           6.0     4.0285178606       -2.7470946684        2.9566652804
 C           6.0    -3.5428582818        0.1077143813        3.4383564347
 C           6.0    -1.0642936763       -0.8741872419        3.6611551286
 C           6.0     1.1071904562        0.7793229973        3.6641786902
 C           6.0     3.5882117055       -0.1931299959        3.4971269129
 C           6.0    -3.9994160804        2.6201050820        2.8287308310
 C           6.0     2.4919816600       -3.7577201266       -0.6782226570
 C           6.0     4.9440901017       -2.9748066499       -0.8594473792
 C           6.0    -0.5873268370       -3.3317758890        2.5437601521
 C           6.0     1.8987966725       -3.8573086861        1.9352683840
 C           6.0    -5.6270370736       -1.1196626477        2.3861570047
 C           6.0    -5.0153327714       -3.1463937696        0.8983757346
 C           6.0    -2.5437601521       -3.9519839581        0.8522664205
 C           6.0    -6.1308380220        2.6809542588        1.3891375736
 C           6.0    -7.3814586806        0.4459753331        1.1933619612
 C           6.0    -7.3982772419       -0.4824470447       -1.2526993573
 C           6.0    -6.1586169940       -2.7117567924       -1.3908383270

          INTERNUCLEAR DISTANCES (ANGS.)
          ------------------------------

                1 C          2 C          3 C          4 C          5 C     

   1 C       0.0000000    1.3885258 *  5.3550084    4.0909617    1.3638431 *
   2 C       1.3885258 *  0.0000000    4.2115095    2.8686340 *  2.0792949 *
   3 C       5.3550084    4.2115095    0.0000000    1.3805138 *  5.3825230  
   4 C       4.0909617    2.8686340 *  1.3805138 *  0.0000000    4.2482854  
   5 C       1.3638431 *  2.0792949 *  5.3825230    4.2482854    0.0000000  
   6 C       2.3157095 *  2.1703110 *  4.6127063    3.5568692    1.3733863 *
   7 C       5.9094245    4.9103188    2.2693622 *  2.7609611 *  5.4271550  
   8 C       4.6623067    3.7439641    2.6409780 *  2.3732592 *  4.1011645  
   9 C       3.6327545    2.4886825 *  2.4356469 *  1.4451932 *  3.4485005  
  10 C       2.3625725 *  1.3900758 *  3.6640457    2.4306307 *  2.2113669 *
  11 C       6.2836576    5.1564301    1.3740584 *  2.4492900 *  6.0728590  
  12 C       2.1953102 *  2.8463395 *  5.2640510    4.3622222    1.3513271 *
  13 C       2.1584401 *  2.8159651 *  5.1709694    4.2832980    2.1775708 *
  14 C       3.3067292    3.5132167    4.7788460    4.1514903    2.2771884 *
  15 C       4.3099210    4.3205994    4.4023664    4.1552119    3.5325409  
  16 C       5.4287934    5.2110458    4.2976946    4.4031489    4.5692725  
  17 C       6.6889862    6.0844702    3.9453525    4.4684183    5.8708082  
  18 C       5.5464263    5.1190941    4.0342300    4.1275305    4.6087467  
  19 C       4.5193945    4.0071467    3.7484968    3.4230664    3.5966283  
  20 C       3.4183680    3.2593064    4.4183130    3.7191239    2.3155743 *
  21 C       6.9256258    6.0714382    3.2288587    3.9741020    6.2902011  
  22 C       1.3827411 *  2.1826274 *  5.4042749    4.2939738    2.2645598 *
  23 C       2.2773894 *  2.2536521 *  4.5770322    3.5625547    3.2075760  
  24 C       3.2964214    3.1184021    4.0155963    3.3647748    3.8274052  
  25 C       6.2825519    5.8001174    3.4854138    4.1326165    5.8566753  
  26 C       5.2047738    4.7978329    3.2297397    3.5113512    4.9939493  
  27 C       4.2081623    4.1435185    4.0090206    3.8028306    3.8786717  
  28 C       3.2186484    3.3642361    4.3946200    3.8105773    3.2671516  
  29 C       6.4908825    6.1280511    4.2430633    4.7495626    5.7830891  
  30 C       3.4180609    2.3779541 *  2.3794643 *  1.3995074 *  3.9174253  
  31 C       2.2252404 *  1.3660067 *  3.6564191    2.4440137 *  3.0620235  
  32 C       5.0688323    4.3862243    2.3640981 *  2.6802780 *  5.1837741  
  33 C       4.0435889    3.3868449    2.7853872 *  2.4215132 *  4.4629782  
  34 C       7.1860136    6.4804412    3.2288912    4.2693229    6.8140054  
  35 C       6.9154402    6.0029985    2.1775974 *  3.4327806    6.7433082  
  36 C       5.8424815    4.9052219    1.4170164 *  2.4236404 *  5.8784809  
  37 C       7.3732435    6.8370538    4.3509953    5.0871442    6.6304743  
  38 C       7.9105972    7.1907282    3.9386373    4.9809259    7.3526749  
  39 C       7.8306482    6.9244913    3.3715218    4.4808716    7.3322243  
  40 C       7.3516470    6.3177749    2.3226065 *  3.6108615    7.0819907  

                6 C          7 C          8 C          9 C         10 C     

   1 C       2.3157095 *  5.9094245    4.6623067    3.6327545    2.3625725 *
   2 C       2.1703110 *  4.9103188    3.7439641    2.4886825 *  1.3900758 *
   3 C       4.6127063    2.2693622 *  2.6409780 *  2.4356469 *  3.6640457  
   4 C       3.5568692    2.7609611 *  2.3732592 *  1.4451932 *  2.4306307 *
   5 C       1.3733863 *  5.4271550    4.1011645    3.4485005    2.2113669 *
   6 C       0.0000000    4.2751298    2.8855423 *  2.4294311 *  1.3917241 *
   7 C       4.2751298    0.0000000    1.4162480 *  2.4955147 *  3.7867298  
   8 C       2.8855423 *  1.4162480 *  0.0000000    1.4433442 *  2.4975376 *
   9 C       2.4294311 *  2.4955147 *  1.4433442 *  0.0000000    1.4126268 *
  10 C       1.3917241 *  3.7867298    2.4975376 *  1.4126268 *  0.0000000  
  11 C       5.0766088    1.3901011 *  2.4497212 *  2.9109502 *  4.2978578  
  12 C       2.0918620 *  5.3433485    4.1892622    3.7957856    2.9236411 *
  13 C       3.0584569    5.7980401    4.7963758    4.1560512    3.3824775  
  14 C       2.1711536 *  4.4316189    3.4068654    3.4895808    3.0570556  
  15 C       3.3526020    4.1773951    3.5634993    3.8708321    3.8804467  
  16 C       4.0265500    3.5419290    3.2976441    4.0821880    4.4690860  
  17 C       4.8853105    2.3007545 *  2.8115385 *  4.1064172    5.0051082  
  18 C       3.6847733    2.6022747 *  2.3474776 *  3.4945849    4.0635741  
  19 C       2.4596216 *  2.4364600 *  1.4485019 *  2.4149399 *  2.8135726 *
  20 C       1.3779490 *  3.6465886    2.4102424 *  2.6499693 *  2.3055671 *
  21 C       5.1838408    1.3962940 *  2.5195283 *  3.7757918    4.9547522  
  22 C       3.2815400    6.3000283    5.2268753    4.2389159    3.2579898  
  23 C       3.8280858    5.9037376    5.0466562    3.9516237    3.3430776  
  24 C       4.2310971    5.4451547    4.8371768    4.0100057    3.8008272  
  25 C       5.3986214    3.6585529    4.0232037    4.5530561    5.3017257  
  26 C       4.7820086    4.0196349    4.0089284    4.0862076    4.5952577  
  27 C       3.9369371    4.5344570    4.0693036    4.0081891    4.0717640  
  28 C       3.7252050    5.2813363    4.5763356    4.0654410    3.7561738  
  29 C       5.2172373    3.6380487    3.9025884    4.7574889    5.4196756  
  30 C       3.6948823    4.0230693    3.4834365    2.3823441 *  2.6536732 *
  31 C       3.2215521    4.9460571    4.0685396    2.7975811 *  2.3179170 *
  32 C       4.9386932    3.9418167    3.9962649    3.7046208    4.3448181  
  33 C       4.4503601    4.5259740    4.2025173    3.4482010    3.7290766  
  34 C       6.1592303    3.3329760    4.1634119    4.8229714    5.8557656  
  35 C       6.0334434    2.9252426 *  3.8510234    4.2557102    5.4305252  
  36 C       5.3223994    3.1133283    3.5996480    3.5333829    4.5657264  
  37 C       5.8313027    3.2606598    3.9201285    5.0389267    5.9328958  
  38 C       6.5178330    3.2059381    4.2352805    5.2362692    6.3381692  
  39 C       6.3275742    2.3577169 *  3.6631351    4.6915056    5.9577791  
  40 C       6.1450410    2.2431670 *  3.5150299    4.1687976    5.5069094  

               11 C         12 C         13 C         14 C         15 C     

   1 C       6.2836576    2.1953102 *  2.1584401 *  3.3067292    4.3099210  
   2 C       5.1564301    2.8463395 *  2.8159651 *  3.5132167    4.3205994  
   3 C       1.3740584 *  5.2640510    5.1709694    4.7788460    4.4023664  
   4 C       2.4492900 *  4.3622222    4.2832980    4.1514903    4.1552119  
   5 C       6.0728590    1.3513271 *  2.1775708 *  2.2771884 *  3.5325409  
   6 C       5.0766088    2.0918620 *  3.0584569    2.1711536 *  3.3526020  
   7 C       1.3901011 *  5.3433485    5.7980401    4.4316189    4.1773951  
   8 C       2.4497212 *  4.1892622    4.7963758    3.4068654    3.5634993  
   9 C       2.9109502 *  3.7957856    4.1560512    3.4895808    3.8708321  
  10 C       4.2978578    2.9236411 *  3.3824775    3.0570556    3.8804467  
  11 C       0.0000000    5.9518496    6.1064283    5.2026736    4.7717105  
  12 C       5.9518496    0.0000000    1.3666888 *  1.3684181 *  2.4487646 *
  13 C       6.1064283    1.3666888 *  0.0000000    2.3780482 *  2.8719419 *
  14 C       5.2026736    1.3684181 *  2.3780482 *  0.0000000    1.4031839 *
  15 C       4.7717105    2.4487646 *  2.8719419 *  1.4031839 *  0.0000000  
  16 C       4.2693005    3.6738045    4.2141445    2.3988693 *  1.3827243 *
  17 C       3.2197615    5.3540317    5.9690561    4.0800846    3.4287642  
  18 C       3.6850031    4.0880189    4.8623382    2.7826784 *  2.4022089 *
  19 C       3.6035592    3.4508139    4.3446733    2.3880399 *  2.6757600 *
  20 C       4.6334242    2.2319436 *  3.3353458    1.4207780 *  2.4010722 *
  21 C       2.1593440 *  5.9781917    6.4822329    4.8501468    4.3098210  
  22 C       6.4841164    2.2830591 *  1.3970563 *  3.4633995    4.1193750  
  23 C       5.8058208    3.1328972    2.0846066 *  3.9822250    4.2877099  
  24 C       5.2296523    3.3100799    2.2148871 *  3.7813522    3.6232257  
  25 C       3.6075349    4.9610382    4.9061126    4.0407452    2.7764831 *
  26 C       3.8660373    4.0918169    3.7448258    3.5105610    2.4011088 *
  27 C       4.7124048    2.7969447 *  2.4840613 *  2.3800731 *  1.4483220 *
  28 C       5.3718971    2.3319757 *  1.3953404 *  2.6655292 *  2.4438495 *
  29 C       4.0618056    4.8648463    5.1588617    3.6860328    2.4612638 *
  30 C       3.6669877    3.9402389    3.4585888    4.1023987    4.1273277  
  31 C       4.8478235    3.3374367    2.7788965 *  3.9311662    4.3333669  
  32 C       3.3795947    4.5771019    4.0313872    4.2609384    3.4901572  
  33 C       4.0595655    4.0547806    3.2825533    4.1518314    3.7813615  
  34 C       2.9820942 *  6.0870080    6.0640788    5.1315651    3.9971485  
  35 C       2.0523107 *  6.2307778    6.1083090    5.4485628    4.5367503  
  36 C       2.2029846 *  5.4492912    5.1412938    4.9305095    4.1930988  
  37 C       3.7399679    5.8874104    6.2973828    4.6342348    3.6111302  
  38 C       3.2037829    6.6886172    6.9171653    5.5493144    4.5062421  
  39 C       2.2707412 *  6.9090819    7.2024539    5.8249787    5.0359964  
  40 C       1.3665769 *  6.7519219    6.8487377    5.8699508    5.1437269  

               16 C         17 C         18 C         19 C         20 C     

   1 C       5.4287934    6.6889862    5.5464263    4.5193945    3.4183680  
   2 C       5.2110458    6.0844702    5.1190941    4.0071467    3.2593064  
   3 C       4.2976946    3.9453525    4.0342300    3.7484968    4.4183130  
   4 C       4.4031489    4.4684183    4.1275305    3.4230664    3.7191239  
   5 C       4.5692725    5.8708082    4.6087467    3.5966283    2.3155743 *
   6 C       4.0265500    4.8853105    3.6847733    2.4596216 *  1.3779490 *
   7 C       3.5419290    2.3007545 *  2.6022747 *  2.4364600 *  3.6465886  
   8 C       3.2976441    2.8115385 *  2.3474776 *  1.4485019 *  2.4102424 *
   9 C       4.0821880    4.1064172    3.4945849    2.4149399 *  2.6499693 *
  10 C       4.4690860    5.0051082    4.0635741    2.8135726 *  2.3055671 *
  11 C       4.2693005    3.2197615    3.6850031    3.6035592    4.6334242  
  12 C       3.6738045    5.3540317    4.0880189    3.4508139    2.2319436 *
  13 C       4.2141445    5.9690561    4.8623382    4.3446733    3.3353458  
  14 C       2.3988693 *  4.0800846    2.7826784 *  2.3880399 *  1.4207780 *
  15 C       1.3827243 *  3.4287642    2.4022089 *  2.6757600 *  2.4010722 *
  16 C       0.0000000    2.1895197 *  1.4225157 *  2.3886113 *  2.7948660 *
  17 C       2.1895197 *  0.0000000    1.3781937 *  2.4876124 *  3.7013139  
  18 C       1.4225157 *  1.3781937 *  0.0000000    1.4012021 *  2.4040525 *
  19 C       2.3886113 *  2.4876124 *  1.4012021 *  0.0000000    1.3799584 *
  20 C       2.7948660 *  3.7013139    2.4040525 *  1.3799584 *  0.0000000  
  21 C       3.2805003    1.3674567 *  2.3764602 *  2.9167290 *  4.2481927  
  22 C       5.3848040    6.9015424    5.8282130    5.0615733    4.0365096  
  23 C       5.4220051    6.7399303    5.8749701    5.1926837    4.4682788  
  24 C       4.6660409    6.0357567    5.3267559    4.9511462    4.4612974  
  25 C       2.2654322 *  2.8832542 *  3.0688186    3.9002641    4.4839774  
  26 C       2.6470338 *  3.8077240    3.5512658    3.9484864    4.1539529  
  27 C       2.4210710 *  4.2050470    3.4688105    3.6390931    3.3773678  
  28 C       3.6634973    5.3830189    4.5102783    4.2857314    3.6647822  
  29 C       1.3714379 *  2.0482547 *  2.1925498 *  3.3758413    4.0493093  
  30 C       4.7538296    5.3674457    4.8458744    4.1802521    4.0683716  
  31 C       5.2396155    6.1574243    5.3703605    4.5033394    3.9731650  
  32 C       3.8002509    4.5020955    4.3459408    4.4075256    4.6408742  
  33 C       4.4682526    5.3874313    4.9460994    4.6420604    4.5358642  
  34 C       3.2420588    2.8436767 *  3.5606418    4.3929768    5.2735297  
  35 C       4.0081891    3.4350594    4.0654251    4.5122722    5.3975631  
  36 C       4.0900586    4.0518936    4.2536529    4.3502549    4.9517230  
  37 C       2.3210489 *  1.3655305 *  2.3356719 *  3.6061143    4.6307352  
  38 C       3.3941001    2.1875357 *  3.3371498    4.3669256    5.4744963  
  39 C       3.9989022    2.2925298 *  3.4854694    4.1771568    5.4305951  
  40 C       4.4085196    3.1466638    4.0127178    4.3758044    5.4929361  

               21 C         22 C         23 C         24 C         25 C     

   1 C       6.9256258    1.3827411 *  2.2773894 *  3.2964214    6.2825519  
   2 C       6.0714382    2.1826274 *  2.2536521 *  3.1184021    5.8001174  
   3 C       3.2288587    5.4042749    4.5770322    4.0155963    3.4854138  
   4 C       3.9741020    4.2939738    3.5625547    3.3647748    4.1326165  
   5 C       6.2902011    2.2645598 *  3.2075760    3.8274052    5.8566753  
   6 C       5.1838408    3.2815400    3.8280858    4.2310971    5.3986214  
   7 C       1.3962940 *  6.3000283    5.9037376    5.4451547    3.6585529  
   8 C       2.5195283 *  5.2268753    5.0466562    4.8371768    4.0232037  
   9 C       3.7757918    4.2389159    3.9516237    4.0100057    4.5530561  
  10 C       4.9547522    3.2579898    3.3430776    3.8008272    5.3017257  
  11 C       2.1593440 *  6.4841164    5.8058208    5.2296523    3.6075349  
  12 C       5.9781917    2.2830591 *  3.1328972    3.3100799    4.9610382  
  13 C       6.4822329    1.3970563 *  2.0846066 *  2.2148871 *  4.9061126  
  14 C       4.8501468    3.4633995    3.9822250    3.7813522    4.0407452  
  15 C       4.3098210    4.1193750    4.2877099    3.6232257    2.7764831 *
  16 C       3.2805003    5.3848040    5.4220051    4.6660409    2.2654322 *
  17 C       1.3674567 *  6.9015424    6.7399303    6.0357567    2.8832542 *
  18 C       2.3764602 *  5.8282130    5.8749701    5.3267559    3.0688186  
  19 C       2.9167290 *  5.0615733    5.1926837    4.9511462    3.9002641  
  20 C       4.2481927    4.0365096    4.4682788    4.4612974    4.4839774  
  21 C       0.0000000    7.2057924    6.8545996    6.2020004    3.3334336  
  22 C       7.2057924    0.0000000    1.3542960 *  2.3285365 *  5.9064986  
  23 C       6.8545996    1.3542960 *  0.0000000    1.3672411 *  5.4282444  
  24 C       6.2020004    2.3285365 *  1.3672411 *  0.0000000    4.2895259  
  25 C       3.3334336    5.9064986    5.4282444    4.2895259    0.0000000  
  26 C       4.1617935    4.6560699    4.0944484    2.8955628 *  1.4156903 *
  27 C       4.8105568    3.6249204    3.4368653    2.4520015 *  2.4891030 *
  28 C       5.8426639    2.3457501 *  2.1775998 *  1.4009416 *  3.7770847  
  29 C       3.0137773    6.2997892    6.0939094    5.1106284    1.3892486 *
  30 C       5.1033855    3.2706061    2.2906460 *  2.1556890 *  4.3735499  
  31 C       6.0637625    2.1463256 *  1.3725420 *  2.0802012 *  5.2918081  
  32 C       4.4262429    4.5315026    3.6116140    2.4717940 *  2.4460105 *
  33 C       5.3072134    3.4262701    2.3298046 *  1.3810958 *  3.6506439  
  34 C       2.8024358 *  6.9187601    6.2912883    5.1903564    1.3958026 *
  35 C       2.8770527 *  6.7108493    5.9029947    4.9127269    2.3192761 *
  36 C       3.5890240    5.5659036    4.6413545    3.7070780    2.6014436 *
  37 C       2.1902091 *  7.3439180    7.0799646    6.1515204    2.2148771 *
  38 C       2.1478801 *  7.8269605    7.3362444    6.3389272    2.3599925 *
  39 C       1.3987152 *  7.9289813    7.3866202    6.5545182    3.2283521  
  40 C       2.1158447 *  7.3907313    6.6665624    5.8612144    3.2669028  

               26 C         27 C         28 C         29 C         30 C     

   1 C       5.2047738    4.2081623    3.2186484    6.4908825    3.4180609  
   2 C       4.7978329    4.1435185    3.3642361    6.1280511    2.3779541 *
   3 C       3.2297397    4.0090206    4.3946200    4.2430633    2.3794643 *
   4 C       3.5113512    3.8028306    3.8105773    4.7495626    1.3995074 *
   5 C       4.9939493    3.8786717    3.2671516    5.7830891    3.9174253  
   6 C       4.7820086    3.9369371    3.7252050    5.2172373    3.6948823  
   7 C       4.0196349    4.5344570    5.2813363    3.6380487    4.0230693  
   8 C       4.0089284    4.0693036    4.5763356    3.9025884    3.4834365  
   9 C       4.0862076    4.0081891    4.0654410    4.7574889    2.3823441 *
  10 C       4.5952577    4.0717640    3.7561738    5.4196756    2.6536732 *
  11 C       3.8660373    4.7124048    5.3718971    4.0618056    3.6669877  
  12 C       4.0918169    2.7969447 *  2.3319757 *  4.8648463    3.9402389  
  13 C       3.7448258    2.4840613 *  1.3953404 *  5.1588617    3.4585888  
  14 C       3.5105610    2.3800731 *  2.6655292 *  3.6860328    4.1023987  
  15 C       2.4011088 *  1.4483220 *  2.4438495 *  2.4612638 *  4.1273277  
  16 C       2.6470338 *  2.4210710 *  3.6634973    1.3714379 *  4.7538296  
  17 C       3.8077240    4.2050470    5.3830189    2.0482547 *  5.3674457  
  18 C       3.5512658    3.4688105    4.5102783    2.1925498 *  4.8458744  
  19 C       3.9484864    3.6390931    4.2857314    3.3758413    4.1802521  
  20 C       4.1539529    3.3773678    3.6647822    4.0493093    4.0683716  
  21 C       4.1617935    4.8105568    5.8426639    3.0137773    5.1033855  
  22 C       4.6560699    3.6249204    2.3457501 *  6.2997892    3.2706061  
  23 C       4.0944484    3.4368653    2.1775998 *  6.0939094    2.2906460 *
  24 C       2.8955628 *  2.4520015 *  1.4009416 *  5.1106284    2.1556890 *
  25 C       1.4156903 *  2.4891030 *  3.7770847    1.3892486 *  4.3735499  
  26 C       0.0000000    1.4443193 *  2.4897523 *  2.4547182 *  3.3381001  
  27 C       1.4443193 *  0.0000000    1.4129169 *  2.9063290 *  3.4031840  
  28 C       2.4897523 *  1.4129169 *  0.0000000    4.2968782    2.9625216 *
  29 C       2.4547182 *  2.9063290 *  4.2968782    0.0000000    5.1608653  
  30 C       3.3381001    3.4031840    2.9625216 *  5.1608653    0.0000000  
  31 C       4.1312826    3.7147520    2.8278012 *  5.9138250    1.3655062 *
  32 C       1.4507383 *  2.4266029 *  2.8098828 *  3.6335812    2.3691983 *
  33 C       2.4051442 *  2.6519186 *  2.2895544 *  4.6598880    1.4191545 *
  34 C       2.5103594 *  3.7638346    4.9362205    2.1709741 *  4.7997349  
  35 C       2.8203997 *  4.1176046    5.0061469    3.2625340    4.0722296  
  36 C       2.3398677 *  3.4950367    4.0552158    3.7124603    2.7870531 *
  37 C       3.4889987    4.1391360    5.4780430    1.3614457 *  5.7988634  
  38 C       3.6562819    4.6817451    5.9411655    2.2968660 *  5.7643584  
  39 C       4.2472458    5.2415463    6.3357235    3.2550277    5.5215952  
  40 C       3.9191794    5.0350539    5.9219723    3.7752138    4.6264353  

               31 C         32 C         33 C         34 C         35 C     

   1 C       2.2252404 *  5.0688323    4.0435889    7.1860136    6.9154402  
   2 C       1.3660067 *  4.3862243    3.3868449    6.4804412    6.0029985  
   3 C       3.6564191    2.3640981 *  2.7853872 *  3.2288912    2.1775974 *
   4 C       2.4440137 *  2.6802780 *  2.4215132 *  4.2693229    3.4327806  
   5 C       3.0620235    5.1837741    4.4629782    6.8140054    6.7433082  
   6 C       3.2215521    4.9386932    4.4503601    6.1592303    6.0334434  
   7 C       4.9460571    3.9418167    4.5259740    3.3329760    2.9252426 *
   8 C       4.0685396    3.9962649    4.2025173    4.1634119    3.8510234  
   9 C       2.7975811 *  3.7046208    3.4482010    4.8229714    4.2557102  
  10 C       2.3179170 *  4.3448181    3.7290766    5.8557656    5.4305252  
  11 C       4.8478235    3.3795947    4.0595655    2.9820942 *  2.0523107 *
  12 C       3.3374367    4.5771019    4.0547806    6.0870080    6.2307778  
  13 C       2.7788965 *  4.0313872    3.2825533    6.0640788    6.1083090  
  14 C       3.9311662    4.2609384    4.1518314    5.1315651    5.4485628  
  15 C       4.3333669    3.4901572    3.7813615    3.9971485    4.5367503  
  16 C       5.2396155    3.8002509    4.4682526    3.2420588    4.0081891  
  17 C       6.1574243    4.5020955    5.3874313    2.8436767 *  3.4350594  
  18 C       5.3703605    4.3459408    4.9460994    3.5606418    4.0654251  
  19 C       4.5033394    4.4075256    4.6420604    4.3929768    4.5122722  
  20 C       3.9731650    4.6408742    4.5358642    5.2735297    5.3975631  
  21 C       6.0637625    4.4262429    5.3072134    2.8024358 *  2.8770527 *
  22 C       2.1463256 *  4.5315026    3.4262701    6.9187601    6.7108493  
  23 C       1.3725420 *  3.6116140    2.3298046 *  6.2912883    5.9029947  
  24 C       2.0802012 *  2.4717940 *  1.3810958 *  5.1903564    4.9127269  
  25 C       5.2918081    2.4460105 *  3.6506439    1.3958026 *  2.3192761 *
  26 C       4.1312826    1.4507383 *  2.4051442 *  2.5103594 *  2.8203997 *
  27 C       3.7147520    2.4266029 *  2.6519186 *  3.7638346    4.1176046  
  28 C       2.8278012 *  2.8098828 *  2.2895544 *  4.9362205    5.0061469  
  29 C       5.9138250    3.6335812    4.6598880    2.1709741 *  3.2625340  
  30 C       1.3655062 *  2.3691983 *  1.4191545 *  4.7997349    4.0722296  
  31 C       0.0000000    3.4419237    2.2365524 *  5.9334962    5.3525301  
  32 C       3.4419237    0.0000000    1.3826883 *  2.9136945 *  2.5016651 *
  33 C       2.2365524 *  1.3826883 *  0.0000000    4.2445221    3.7187922  
  34 C       5.9334962    2.9136945 *  4.2445221    0.0000000    1.3692623 *
  35 C       5.3525301    2.5016651 *  3.7187922    1.3692623 *  0.0000000  
  36 C       4.0973747    1.4073967 *  2.4202654 *  2.3595290 *  1.3758377 *
  37 C       6.6872973    4.3706515    5.4871923    2.0962735 *  3.1504133  
  38 C       6.8555506    4.1753127    5.4274039    1.3952606 *  2.2816491 *
  39 C       6.6663845    4.3931537    5.4990763    2.1679877 *  2.2075104 *
  40 C       5.8836723    3.6241790    4.6524640    2.1871757 *  1.3734682 *

               36 C         37 C         38 C         39 C         40 C     

   1 C       5.8424815    7.3732435    7.9105972    7.8306482    7.3516470  
   2 C       4.9052219    6.8370538    7.1907282    6.9244913    6.3177749  
   3 C       1.4170164 *  4.3509953    3.9386373    3.3715218    2.3226065 *
   4 C       2.4236404 *  5.0871442    4.9809259    4.4808716    3.6108615  
   5 C       5.8784809    6.6304743    7.3526749    7.3322243    7.0819907  
   6 C       5.3223994    5.8313027    6.5178330    6.3275742    6.1450410  
   7 C       3.1133283    3.2606598    3.2059381    2.3577169 *  2.2431670 *
   8 C       3.5996480    3.9201285    4.2352805    3.6631351    3.5150299  
   9 C       3.5333829    5.0389267    5.2362692    4.6915056    4.1687976  
  10 C       4.5657264    5.9328958    6.3381692    5.9577791    5.5069094  
  11 C       2.2029846 *  3.7399679    3.2037829    2.2707412 *  1.3665769 *
  12 C       5.4492912    5.8874104    6.6886172    6.9090819    6.7519219  
  13 C       5.1412938    6.2973828    6.9171653    7.2024539    6.8487377  
  14 C       4.9305095    4.6342348    5.5493144    5.8249787    5.8699508  
  15 C       4.1930988    3.6111302    4.5062421    5.0359964    5.1437269  
  16 C       4.0900586    2.3210489 *  3.3941001    3.9989022    4.4085196  
  17 C       4.0518936    1.3655305 *  2.1875357 *  2.2925298 *  3.1466638  
  18 C       4.2536529    2.3356719 *  3.3371498    3.4854694    4.0127178  
  19 C       4.3502549    3.6061143    4.3669256    4.1771568    4.3758044  
  20 C       4.9517230    4.6307352    5.4744963    5.4305951    5.4929361  
  21 C       3.5890240    2.1902091 *  2.1478801 *  1.3987152 *  2.1158447 *
  22 C       5.5659036    7.3439180    7.8269605    7.9289813    7.3907313  
  23 C       4.6413545    7.0799646    7.3362444    7.3866202    6.6665624  
  24 C       3.7070780    6.1515204    6.3389272    6.5545182    5.8612144  
  25 C       2.6014436 *  2.2148771 *  2.3599925 *  3.2283521    3.2669028  
  26 C       2.3398677 *  3.4889987    3.6562819    4.2472458    3.9191794  
  27 C       3.4950367    4.1391360    4.6817451    5.2415463    5.0350539  
  28 C       4.0552158    5.4780430    5.9411655    6.3357235    5.9219723  
  29 C       3.7124603    1.3614457 *  2.2968660 *  3.2550277    3.7752138  
  30 C       2.7870531 *  5.7988634    5.7643584    5.5215952    4.6264353  
  31 C       4.0973747    6.6872973    6.8555506    6.6663845    5.8836723  
  32 C       1.4073967 *  4.3706515    4.1753127    4.3931537    3.6241790  
  33 C       2.4202654 *  5.4871923    5.4274039    5.4990763    4.6524640  
  34 C       2.3595290 *  2.0962735 *  1.3952606 *  2.1679877 *  2.1871757 *
  35 C       1.3758377 *  3.1504133    2.2816491 *  2.2075104 *  1.3734682 *
  36 C       0.0000000    4.0004970    3.4644632    3.3482707    2.3449702 *
  37 C       4.0004970    0.0000000    1.3592246 *  2.2817797 *  3.2106004  
  38 C       3.4644632    1.3592246 *  0.0000000    1.3845311 *  2.2541153 *
  39 C       3.3482707    2.2817797 *  1.3845311 *  0.0000000    1.3518031 *
  40 C       2.3449702 *  3.2106004    2.2541153 *  1.3518031 *  0.0000000  

  * ... LESS THAN  3.000


 TOTAL NUMBER OF BASIS SET SHELLS             =   40
 NUMBER OF CARTESIAN GAUSSIAN BASIS FUNCTIONS =  160
 NUMBER OF ELECTRONS                          =  160
 CHARGE OF MOLECULE                           =    0
 SPIN MULTIPLICITY                            =    1
 NUMBER OF OCCUPIED ORBITALS (ALPHA)          =   80
 NUMBER OF OCCUPIED ORBITALS (BETA )          =   80
 TOTAL NUMBER OF ATOMS                        =   40
 THE NUCLEAR REPULSION ENERGY IS     4505.0676653626

 THE PARAMETERS USED IN THIS CALCULATION ARE DESCRIBED IN:

  C: (PM3): J. J. P. STEWART, J. COMP. CHEM. 10, 209 (1989).                    

 THERE ARE   40 HEAVY AND    0 LIGHT ATOMS,
 YIELDING A TOTAL OF     78000 MOPAC 2E- INTEGRALS.

     $CONTRL OPTIONS
     ---------------
 SCFTYP=RHF          RUNTYP=OPTIMIZE     EXETYP=RUN     
 MPLEVL=       0     CITYP =NONE         CCTYP =NONE         VBTYP =NONE    
 DFTTYP=NONE         TDDFT =NONE    
 MULT  =       1     ICHARG=       0     NZVAR =       0     COORD =UNIQUE  
 PP    =NONE         RELWFN=NONE         LOCAL =NONE         NUMGRD=       F
 ISPHER=      -1     NOSYM =       0     MAXIT =     200     UNITS =ANGS    
 PLTORB=       F     MOLPLT=       F     AIMPAC=       F     FRIEND=        
 NPRINT=       7     IREST =       0     GEOM  =INPUT   
 NORMF =       0     NORMP =       0     ITOL  =      20     ICUT  =       9
 INTTYP=BEST         GRDTYP=BEST         QMTTOL= 1.0E-06

     $SYSTEM OPTIONS
     ---------------
  REPLICATED MEMORY=    10000000 WORDS (ON EVERY NODE).
 DISTRIBUTED MEMDDI=           0 MILLION WORDS IN AGGREGATE,
 MEMDDI DISTRIBUTED OVER   2 PROCESSORS IS           0 WORDS/PROCESSOR.
 TOTAL MEMORY REQUESTED ON EACH PROCESSOR=    10000000 WORDS.
 TIMLIM=      525600.00 MINUTES, OR     365.0 DAYS.
 PARALL= T  BALTYP=  DLB     KDIAG=    0  COREFL= F
 MXSEQ2=     300 MXSEQ3=     150  mem10=         0  mem22=         0

          ----------------
          PROPERTIES INPUT
          ----------------

     MOMENTS            FIELD           POTENTIAL          DENSITY
 IEMOM =       1   IEFLD =       0   IEPOT =       0   IEDEN =       0
 WHERE =COMASS     WHERE =NUCLEI     WHERE =NUCLEI     WHERE =NUCLEI  
 OUTPUT=BOTH       OUTPUT=BOTH       OUTPUT=BOTH       OUTPUT=BOTH    
 IEMINT=       0   IEFINT=       0                     IEDINT=       0
                                                       MORB  =       0
          EXTRAPOLATION IN EFFECT
          SOSCF IN EFFECT
 ORBITAL PRINTING OPTION: NPREO=     1   160     2     1

     -------------------------------
     INTEGRAL TRANSFORMATION OPTIONS
     -------------------------------
     NWORD  =            0
     CUTTRF = 1.0E-09     MPTRAN =       0
     DIRTRF =       T     AOINTS =DUP     

          ----------------------
          INTEGRAL INPUT OPTIONS
          ----------------------
 NOPK  =       1 NORDER=       0 SCHWRZ=       T

     ------------------------------------------
     THE POINT GROUP IS C1 , NAXIS= 0, ORDER= 1
     ------------------------------------------

     DIMENSIONS OF THE SYMMETRY SUBSPACES ARE
 A   =  160

 ..... DONE SETTING UP THE RUN .....
 CPU     0: STEP CPU TIME=     0.02 TOTAL CPU TIME=          0.0 (      0.0 MIN)
 TOTAL WALL CLOCK TIME=          0.0 SECONDS, CPU UTILIZATION IS   120.19%


          -----------------------------
          STATIONARY POINT LOCATION RUN
          -----------------------------

 OBTAINING INITIAL HESSIAN, HESS=GUESS   
 CARTESIAN COORDINATE OPTIMIZATION USING BADGER'S RULE FORCE CONSTANT GUESS

          PARAMETERS CONTROLLING GEOMETRY SEARCH ARE
          METHOD =QA                  UPHESS =BFGS    
          NNEG   =         0          NFRZ   =         0
          NSTEP  =       100          IFOLOW =         1
          HESS   =GUESS               RESTAR =         F
          IHREP  =         0          HSSEND =         F
          NPRT   =         0          NPUN   =         0
          OPTTOL = 1.000E-03          RMIN   = 1.500E-03
          RMAX   = 1.000E-01          RLIM   = 7.000E-02
          DXMAX  = 3.000E-01          PURIFY =         F
          MOVIE  =         F          TRUPD  =         T
          TRMAX  = 5.000E-01          TRMIN  = 5.000E-02
          ITBMAT =         5          STPT   =         F
          STSTEP = 1.000E-02          PROJCT=          T

 BEGINNING GEOMETRY SEARCH POINT NSERCH=   0 ...

 COORDINATES OF ALL ATOMS ARE (ANGS)
   ATOM   CHARGE       X              Y              Z
 ------------------------------------------------------------
 C           6.0   3.9004000000   0.2329000000  -0.6476000000
 C           6.0   2.9728000000  -0.5652000000  -1.3038000000
 C           6.0  -0.9948000000  -1.9220000000  -0.9113000000
 C           6.0   0.3087000000  -1.6280000000  -1.2581000000
 C           6.0   3.2242000000   1.4150000000  -0.7215000000
 C           6.0   2.1236000000   1.4177000000  -1.5430000000
 C           6.0  -1.8811000000  -0.0494000000  -1.8375000000
 C           6.0  -0.5665000000   0.4622000000  -1.9634000000
 C           6.0   0.5840000000  -0.4091000000  -1.9841000000
 C           6.0   1.9025000000   0.0910000000  -1.9006000000
 C           6.0  -2.1168000000  -1.3729000000  -1.4837000000
 C           6.0   2.6335000000   1.6312000000   0.4745000000
 C           6.0   2.9731000000   0.5741000000   1.2714000000
 C           6.0   1.3333000000   2.0470000000   0.3788000000
 C           6.0   0.3181000000   1.6691000000   1.2707000000
 C           6.0  -0.9956000000   1.9535000000   0.9463000000
 C           6.0  -2.6369000000   1.6379000000  -0.4681000000
 C           6.0  -1.3286000000   2.0697000000  -0.4318000000
 C           6.0  -0.3057000000   1.7387000000  -1.3304000000
 C           6.0   1.0059000000   2.0163000000  -1.0034000000
 C           6.0  -2.9872000000   0.5924000000  -1.2769000000
 C           6.0   3.9053000000  -0.2571000000   0.6454000000
 C           6.0   3.2374000000  -1.4296000000   0.7606000000
 C           6.0   2.1318000000  -1.4537000000   1.5646000000
 C           6.0  -1.8748000000   0.0570000000   1.8195000000
 C           6.0  -0.5632000000  -0.4626000000   1.9374000000
 C           6.0   0.5859000000   0.4124000000   1.9390000000
 C           6.0   1.8988000000  -0.1022000000   1.8506000000
 C           6.0  -2.1164000000   1.3865000000   1.4969000000
 C           6.0   1.3187000000  -1.9885000000  -0.3589000000
 C           6.0   2.6163000000  -1.5742000000  -0.4548000000
 C           6.0  -0.3108000000  -1.7631000000   1.3461000000
 C           6.0   1.0048000000  -2.0412000000   1.0241000000
 C           6.0  -2.9777000000  -0.5925000000   1.2627000000
 C           6.0  -2.6540000000  -1.6650000000   0.4754000000
 C           6.0  -1.3461000000  -2.0913000000   0.4510000000
 C           6.0  -3.2443000000   1.4187000000   0.7351000000
 C           6.0  -3.9061000000   0.2360000000   0.6315000000
 C           6.0  -3.9150000000  -0.2553000000  -0.6629000000
 C           6.0  -3.2590000000  -1.4350000000  -0.7360000000

          ********************
          1 ELECTRON INTEGRALS
          ********************

          **************************
          1 AND 2 ELECTRON INTEGRALS
          **************************

 MOPAC ONE- AND TWO-ELECTRON INTEGRALS REQUIRE    103760 WORDS.
 ...... END OF ONE- AND TWO-ELECTRON INTEGRALS......
 CPU     0: STEP CPU TIME=     0.02 TOTAL CPU TIME=          0.0 (      0.0 MIN)
 TOTAL WALL CLOCK TIME=          0.0 SECONDS, CPU UTILIZATION IS   107.76%
 ...... END OF ONE-ELECTRON INTEGRALS ......
 CPU     0: STEP CPU TIME=     0.00 TOTAL CPU TIME=          0.0 (      0.0 MIN)
 TOTAL WALL CLOCK TIME=          0.0 SECONDS, CPU UTILIZATION IS   107.76%

          -------------
          GUESS OPTIONS
          -------------
          GUESS =HUCKEL            NORB  =       0          NORDER=       0
          MIX   =       F          PRTMO =       F          PUNMO =       F
          TOLZ  = 1.0E-08          TOLE  = 1.0E-05
          SYMDEN=       F          PURIFY=       F

 INITIAL GUESS ORBITALS GENERATED BY HUCKEL   ROUTINE.

 SYMMETRIES FOR INITIAL GUESS ORBITALS FOLLOW.   BOTH SET(S).
    80 ORBITALS ARE OCCUPIED (    0 CORE ORBITALS).
     1=A        2=A        3=A        4=A        5=A        6=A        7=A   
     8=A        9=A       10=A       11=A       12=A       13=A       14=A   
    15=A       16=A       17=A       18=A       19=A       20=A       21=A   
    22=A       23=A       24=A       25=A       26=A       27=A       28=A   
    29=A       30=A       31=A       32=A       33=A       34=A       35=A   
    36=A       37=A       38=A       39=A       40=A       41=A       42=A   
    43=A       44=A       45=A       46=A       47=A       48=A       49=A   
    50=A       51=A       52=A       53=A       54=A       55=A       56=A   
    57=A       58=A       59=A       60=A       61=A       62=A       63=A   
    64=A       65=A       66=A       67=A       68=A       69=A       70=A   
    71=A       72=A       73=A       74=A       75=A       76=A       77=A   
    78=A       79=A       80=A       81=A       82=A       83=A       84=A   
    85=A       86=A       87=A       88=A       89=A       90=A   
 ...... END OF INITIAL ORBITAL SELECTION ......
 CPU     0: STEP CPU TIME=     0.00 TOTAL CPU TIME=          0.0 (      0.0 MIN)
 TOTAL WALL CLOCK TIME=          0.0 SECONDS, CPU UTILIZATION IS   107.76%

          --------------------------
               R-PM3 SCF CALCULATION
          --------------------------

     NUCLEAR ENERGY =      1806.5573201943
     MAXIT =  200     NPUNCH=    2
     EXTRAP=T  DAMP=F  SHIFT=F  RSTRCT=F  DIIS=F  DEM=F  SOSCF=T
     DENSITY MATRIX CONV=  2.00E-05
     SOSCF WILL OPTIMIZE    6400 ORBITAL ROTATIONS, SOGTOL=   0.250
     MEMORY REQUIRED FOR RHF ITERS=    285680 WORDS.

                                                                                   NONZERO     BLOCKS
 ITER EX DEM     TOTAL ENERGY        E CHANGE  DENSITY CHANGE     ORB. GRAD      INTEGRALS    SKIPPED
   1  0  0     -170.9189270934  -170.9189270934   0.177288316   0.000000000              0          0
          ---------------START SECOND ORDER SCF---------------
   2  1  0     -172.1239341582    -1.2050070647   0.118503870   0.053819603              0          0
   3  2  0     -172.1670738735    -0.0431397153   0.062166648   0.051076686              0          0
   4  3  0     -172.2762927381    -0.1092188646   0.047307479   0.014139432              0          0
   5  4  0     -172.2869156741    -0.0106229360   0.011452168   0.005954533              0          0
   6  5  0     -172.2888174059    -0.0019017318   0.021585854   0.002495140              0          0
   7  6  0     -172.2900857387    -0.0012683327   0.026252644   0.001863660              0          0
   8  7  0     -172.2910572532    -0.0009715146   0.038664461   0.002087268              0          0
   9  8  0     -172.2921798232    -0.0011225700   0.019409702   0.002597027              0          0
  10  9  0     -172.2930925180    -0.0009126947   0.044954741   0.002959838              0          0
  11 10  0     -172.2949247760    -0.0018322580   0.009896800   0.002501251              0          0
  12 11  0     -172.2956704892    -0.0007457132   0.026350252   0.001565790              0          0
  13 12  0     -172.2965713318    -0.0009008426   0.011080604   0.001116497              0          0
  14 13  0     -172.2969030498    -0.0003317180   0.014025942   0.001089910              0          0
  15 14  0     -172.2971245224    -0.0002214726   0.034059872   0.001304844              0          0
  16 15  0     -172.2976347106    -0.0005101882   0.128383490   0.001756560              0          0
  17 16  0     -172.2980152071    -0.0003804965   0.052059491   0.005054324              0          0
  18 17  0     -172.2993136293    -0.0012984223   0.032799945   0.002785663              0          0
  19 18  0     -172.3008924458    -0.0015788164   0.258216355   0.002135144              0          0
  20 19  0     -172.2728479919     0.0280444538   0.230497295   0.008941855              0          0
  21 20  0     -172.2962500669    -0.0234020750   0.094614969   0.014141584              0          0
  22 21  0     -172.3034727926    -0.0072227257   0.030381289   0.003744712              0          0
  23 22  0     -172.3044016951    -0.0009289025   0.005926612   0.001695648              0          0
  24 23  0     -172.3046202488    -0.0002185536   0.006681628   0.000809857              0          0
  25 24  0     -172.3047816485    -0.0001613997   0.005158471   0.000777039              0          0
  26 25  0     -172.3048425383    -0.0000608898   0.003659375   0.000455552              0          0
  27 26  0     -172.3048625419    -0.0000200037   0.001619337   0.000147013              0          0
  28 27  0     -172.3048685070    -0.0000059651   0.001673412   0.000091541              0          0
  29 28  0     -172.3048726128    -0.0000041059   0.001145094   0.000064963              0          0
  30 29  0     -172.3048749124    -0.0000022995   0.001203919   0.000049473              0          0
  31 30  0     -172.3048766104    -0.0000016980   0.000993871   0.000036510              0          0
  32 31  0     -172.3048776637    -0.0000010533   0.000739910   0.000040300              0          0
  33 32  0     -172.3048782462    -0.0000005825   0.000460744   0.000030563              0          0
  34 33  0     -172.3048785292    -0.0000002830   0.000273388   0.000017337              0          0
  35 34  0     -172.3048786636    -0.0000001344   0.000155899   0.000012940              0          0
  36 35  0     -172.3048787276    -0.0000000641   0.000106646   0.000012450              0          0
  37 36  0     -172.3048787655    -0.0000000379   0.000134609   0.000011231              0          0
  38 37  0     -172.3048788008    -0.0000000353   0.000184343   0.000009991              0          0
  39 38  0     -172.3048788413    -0.0000000405   0.000239286   0.000008565              0          0
  40 39  0     -172.3048788846    -0.0000000433   0.000210750   0.000006216              0          0
  41 40  0     -172.3048789166    -0.0000000320   0.000112432   0.000004388              0          0
  42 41  0     -172.3048789313    -0.0000000147   0.000041919   0.000003139              0          0
  43 42  0     -172.3048789363    -0.0000000050   0.000029686   0.000002417              0          0
  44 43  0     -172.3048789383    -0.0000000021   0.000023612   0.000001586              0          0

          ----------------
          ENERGY CONVERGED
          ----------------
     TIME TO FORM FOCK OPERATORS=       0.0 SECONDS (       0.0 SEC/ITER)
     FOCK TIME ON FIRST ITERATION=       0.0, LAST ITERATION=       0.0
     TIME TO SOLVE SCF EQUATIONS=       0.1 SECONDS (       0.0 SEC/ITER)

 FINAL R-PM3 ENERGY IS     -172.3048789383 AFTER  44 ITERATIONS

 HEAT OF FORMATION IS      1312.40407 KCAL/MOL
 

          ------------
          EIGENVECTORS
          ------------

                      1          2          3          4          5
                   -1.9714    -1.8885    -1.6622    -1.5989    -1.5591
                     A          A          A          A          A   
    1  C  1  S    0.197183  -0.185290  -0.049881  -0.063537   0.219903
    2  C  1  X   -0.067816   0.060965   0.025679   0.033257  -0.054385
    3  C  1  Y   -0.004418   0.004742  -0.045399  -0.022340  -0.010586
    4  C  1  Z    0.027497  -0.027402   0.012927   0.029558   0.043311
    5  C  2  S    0.199885  -0.171920   0.002164  -0.105693   0.124448
    6  C  2  X   -0.018098   0.006264  -0.004016   0.031062   0.042862
    7  C  2  Y    0.026318  -0.024757  -0.059226  -0.043269   0.027078
    8  C  2  Z    0.051333  -0.048229   0.026795   0.017471   0.056386
    9  C  3  S    0.126344   0.110481   0.193481  -0.206763  -0.158009
   10  C  3  X   -0.005519  -0.039484  -0.001704   0.028121  -0.049267
   11  C  3  Y    0.024293   0.024191   0.018007  -0.044744  -0.021159
   12  C  3  Z    0.014434   0.012945   0.035967   0.011240  -0.016351
   13  C  4  S    0.127006   0.007664   0.156092  -0.161703  -0.209277
   14  C  4  X    0.004245  -0.034965  -0.006041   0.029447   0.013407
   15  C  4  Y    0.017979  -0.001136  -0.010897  -0.036462  -0.022640
   16  C  4  Z    0.019748  -0.001404   0.048313   0.010990  -0.031276
   17  C  5  S    0.199580  -0.174724  -0.183106  -0.130638   0.129466
   18  C  5  X   -0.040293   0.028018   0.064556   0.041013   0.022354
   19  C  5  Y   -0.048819   0.046905   0.005759   0.021066  -0.062298
   20  C  5  Z    0.023965  -0.022676  -0.008963   0.021853   0.028992
   21  C  6  S    0.176805  -0.126665  -0.221313  -0.196240  -0.030934
   22  C  6  X    0.001847  -0.017252   0.017984   0.010395   0.068366
   23  C  6  Y   -0.031350   0.025812   0.003764   0.038851  -0.015869
   24  C  6  Z    0.046156  -0.036234  -0.061451  -0.025639   0.004876
   25  C  7  S    0.127759   0.164472   0.020383  -0.199083  -0.028946
   26  C  7  X   -0.003159  -0.028201  -0.008475  -0.012548  -0.071586
   27  C  7  Y   -0.005741  -0.009763  -0.047617   0.044207  -0.003736
   28  C  7  Z    0.031669   0.046993   0.006343  -0.028025   0.013598
   29  C  8  S    0.114989   0.061214  -0.065197  -0.184676  -0.180390
   30  C  8  X    0.002957  -0.032138  -0.015222  -0.012033  -0.031669
   31  C  8  Y   -0.004115  -0.005300  -0.045597   0.034637   0.001644
   32  C  8  Z    0.023244   0.014582  -0.018818  -0.017869  -0.031832
   33  C  9  S    0.125753  -0.015733  -0.000539  -0.210144  -0.182756
   34  C  9  X    0.007315  -0.032406  -0.011756   0.008842   0.026003
   35  C  9  Y    0.006329  -0.003616  -0.052220  -0.013675  -0.006075
   36  C  9  Z    0.026995  -0.005016   0.012040  -0.028918  -0.034339
   37  C 10  S    0.167171  -0.111670  -0.089947  -0.204052  -0.044565
   38  C 10  X    0.010683  -0.026675  -0.005739   0.012536   0.070508
   39  C 10  Y    0.008426  -0.007275  -0.060180  -0.020810  -0.000205
   40  C 10  Z    0.045647  -0.035642  -0.018263  -0.032089   0.009825
   41  C 11  S    0.131659   0.181572   0.134726  -0.247977  -0.004950
   42  C 11  X    0.002227  -0.016340   0.012804  -0.018364  -0.066512
   43  C 11  Y    0.022035   0.033902  -0.007329  -0.030434   0.016768
   44  C 11  Z    0.032295   0.048178   0.043096  -0.042683   0.009882
   45  C 12  S    0.196437  -0.158060  -0.181998  -0.029553   0.057067
   46  C 12  X   -0.009838  -0.004883   0.037252  -0.005344   0.065210
   47  C 12  Y   -0.048967   0.044919   0.001308  -0.012091  -0.048905
   48  C 12  Z   -0.029539   0.025699   0.054704   0.057122  -0.012973
   49  C 13  S    0.201984  -0.174083  -0.006477   0.100973   0.129494
   50  C 13  X   -0.017459   0.005739   0.005232  -0.029209   0.042680
   51  C 13  Y   -0.025774   0.024399  -0.062488  -0.044020  -0.027707
   52  C 13  Z   -0.050876   0.047806   0.028495   0.019009  -0.055749
   53  C 14  S    0.156496  -0.074203  -0.235154   0.001268  -0.143273
   54  C 14  X    0.011810  -0.032712   0.001258  -0.031821   0.057640
   55  C 14  Y   -0.035576   0.020903   0.031238  -0.007052   0.017090
   56  C 14  Z   -0.017307   0.012165   0.045877   0.055188   0.009528
   57  C 15  S    0.125159   0.007156  -0.159462   0.158962  -0.204261
   58  C 15  X    0.004107  -0.034521   0.005637  -0.030598   0.014406
   59  C 15  Y   -0.018184   0.000943  -0.009025  -0.035935   0.022702
   60  C 15  Z   -0.020231   0.001627   0.048266   0.008833   0.031768
   61  C 16  S    0.124062   0.108494  -0.192898   0.208795  -0.156368
   62  C 16  X   -0.005161  -0.038356   0.001097  -0.027990  -0.047235
   63  C 16  Y   -0.025099  -0.025200   0.020563  -0.046922   0.022260
   64  C 16  Z   -0.014857  -0.013276   0.035910   0.008163   0.016925
   65  C 17  S    0.137139   0.207497  -0.139683   0.101224   0.063628
   66  C 17  X    0.010930   0.001411  -0.033677   0.012558  -0.058462
   67  C 17  Y   -0.032870  -0.056161   0.003961   0.007520  -0.046717
   68  C 17  Z    0.018385   0.030332  -0.028629   0.066910   0.014898
   69  C 18  S    0.123270   0.122133  -0.200249   0.092239  -0.129696
   70  C 18  X   -0.000424  -0.030616  -0.016424  -0.025064  -0.059785
   71  C 18  Y   -0.027909  -0.032270   0.029507  -0.008189   0.016015
   72  C 18  Z    0.012291   0.017244  -0.024034   0.064788  -0.003664
   73  C 19  S    0.118573   0.039355  -0.192601  -0.077337  -0.207610
   74  C 19  X    0.006830  -0.032235  -0.020534  -0.028862  -0.021427
   75  C 19  Y   -0.018121  -0.008195   0.005154   0.036664   0.025432
   76  C 19  Z    0.019026   0.009104  -0.042161   0.027381  -0.031597
   77  C 20  S    0.147499  -0.056029  -0.254904  -0.117517  -0.175416
   78  C 20  X    0.015623  -0.035371  -0.014626  -0.028721   0.042636
   79  C 20  Y   -0.032677   0.015371   0.039173   0.038549   0.028067
   80  C 20  Z    0.018417  -0.007667  -0.034609   0.023542  -0.017203
   81  C 21  S    0.138350   0.223102  -0.030337  -0.071559   0.130726
   82  C 21  X    0.015727   0.014230  -0.011958  -0.021981  -0.036440
   83  C 21  Y   -0.017074  -0.030333  -0.038509   0.058161  -0.028771
   84  C 21  Z    0.033384   0.058484  -0.017936   0.027107   0.052960
   85  C 22  S    0.196965  -0.185176   0.052925   0.065291   0.220597
   86  C 22  X   -0.067944   0.061132  -0.027085  -0.033631  -0.054981
   87  C 22  Y    0.004780  -0.005123  -0.045706  -0.022804   0.011497
   88  C 22  Z   -0.027016   0.026894   0.013197   0.029109  -0.042115
   89  C 23  S    0.196476  -0.172055   0.183099   0.134535   0.127280
   90  C 23  X   -0.040600   0.028398  -0.064911  -0.042655   0.021816
   91  C 23  Y    0.049638  -0.047606   0.008821   0.022415   0.062801
   92  C 23  Z   -0.023951   0.022651  -0.008165   0.019922  -0.028640
   93  C 24  S    0.174271  -0.124921   0.223731   0.195674  -0.030819
   94  C 24  X    0.001338  -0.016574  -0.018342  -0.009852   0.067356
   95  C 24  Y    0.031865  -0.026233   0.007056   0.038378   0.016399
   96  C 24  Z   -0.047017   0.036698  -0.062962  -0.029081  -0.003371
   97  C 25  S    0.128437   0.165420  -0.022504   0.200478  -0.030846
   98  C 25  X   -0.003394  -0.028493   0.008627   0.011776  -0.070764
   99  C 25  Y    0.005816   0.009942  -0.049234   0.045640   0.003292
  100  C 25  Z   -0.031316  -0.046479   0.006611  -0.027525  -0.013173
  101  C 26  S    0.115574   0.061714   0.066412   0.182535  -0.180133
  102  C 26  X    0.002693  -0.032555   0.015574   0.011072  -0.030711
  103  C 26  Y    0.003703   0.005303  -0.047451   0.034613  -0.000455
  104  C 26  Z   -0.022832  -0.014297  -0.018700  -0.016638   0.031040
  105  C 27  S    0.126750  -0.015939  -0.001868   0.207017  -0.180682
  106  C 27  X    0.007460  -0.032882   0.011824  -0.009651   0.026712
  107  C 27  Y   -0.006069   0.003702  -0.055029  -0.012991   0.005517
  108  C 27  Z   -0.025945   0.005080   0.012556  -0.025851   0.031848
  109  C 28  S    0.170124  -0.114125   0.093205   0.202115  -0.040724
  110  C 28  X    0.011865  -0.027909   0.006403  -0.011260   0.071854
  111  C 28  Y   -0.008830   0.007559  -0.064397  -0.022329   0.001047
  112  C 28  Z   -0.044288   0.034827  -0.017231  -0.028599  -0.011124
  113  C 29  S    0.130539   0.179835  -0.136677   0.250083  -0.009021
  114  C 29  X    0.002697  -0.015271  -0.013594   0.019164  -0.064531
  115  C 29  Y   -0.022232  -0.034284  -0.006223  -0.031062  -0.016578
  116  C 29  Z   -0.032604  -0.048548   0.043491  -0.044728  -0.009010
  117  C 30  S    0.159716  -0.075075   0.235444   0.000533  -0.149297
  118  C 30  X    0.012361  -0.033762  -0.001109   0.032499   0.058565
  119  C 30  Y    0.034033  -0.020179   0.026487  -0.008192  -0.015581
  120  C 30  Z    0.017392  -0.012240   0.047822   0.059027  -0.009500
  121  C 31  S    0.200574  -0.161235   0.179040   0.029895   0.056777
  122  C 31  X   -0.008441  -0.006552  -0.036335   0.005746   0.068747
  123  C 31  Y    0.047302  -0.043599  -0.003705  -0.014745   0.048652
  124  C 31  Z    0.028608  -0.024921   0.055980   0.061538   0.012814
  125  C 32  S    0.117687   0.039257   0.193605   0.076303  -0.206635
  126  C 32  X    0.006874  -0.031935   0.020797   0.029056  -0.021616
  127  C 32  Y    0.018422   0.008259   0.006669   0.035656  -0.025847
  128  C 32  Z   -0.019543  -0.009367  -0.042539   0.025510   0.032861
  129  C 33  S    0.146153  -0.055256   0.254956   0.119536  -0.176001
  130  C 33  X    0.015264  -0.034867   0.014457   0.029274   0.041923
  131  C 33  Y    0.033788  -0.015830   0.042431   0.038873  -0.029654
  132  C 33  Z   -0.018546   0.007525  -0.034175   0.021436   0.018502
  133  C 34  S    0.139182   0.224237   0.031032   0.070353   0.129329
  134  C 34  X    0.015330   0.013450   0.011772   0.022148  -0.037566
  135  C 34  Y    0.016665   0.029653  -0.039886   0.059240   0.027414
  136  C 34  Z   -0.033382  -0.058493  -0.018200   0.027782  -0.053318
  137  C 35  S    0.135664   0.205491   0.139552  -0.100355   0.064541
  138  C 35  X    0.011799   0.003073   0.034307  -0.012567  -0.056992
  139  C 35  Y    0.033136   0.056505   0.005163   0.006009   0.046474
  140  C 35  Z   -0.018409  -0.030442  -0.027894   0.064485  -0.016241
  141  C 36  S    0.122668   0.122374   0.199655  -0.089434  -0.127550
  142  C 36  X   -0.000236  -0.030050   0.016677   0.024589  -0.060431
  143  C 36  Y    0.028576   0.033002   0.031030  -0.008984  -0.016661
  144  C 36  Z   -0.012559  -0.017583  -0.023932   0.062776   0.003363
  145  C 37  S    0.132550   0.217545  -0.113359   0.173547   0.130872
  146  C 37  X    0.030027   0.041137  -0.043128   0.061008  -0.012947
  147  C 37  Y   -0.032359  -0.057691   0.001568  -0.019789  -0.057831
  148  C 37  Z   -0.016294  -0.028483   0.012018   0.009965  -0.026607
  149  C 38  S    0.130685   0.229059  -0.024796   0.065722   0.211610
  150  C 38  X    0.044994   0.075519  -0.012780   0.034428   0.052869
  151  C 38  Y   -0.003690  -0.007213  -0.030776   0.036334  -0.011582
  152  C 38  Z   -0.017917  -0.033206  -0.004054   0.027438  -0.040413
  153  C 39  S    0.129584   0.227243   0.026316  -0.069646   0.211593
  154  C 39  X    0.045020   0.075657   0.013097  -0.035398   0.053986
  155  C 39  Y    0.003633   0.007080  -0.030042   0.035146   0.010783
  156  C 39  Z    0.018405   0.034061  -0.003175   0.025164   0.040709
  157  C 40  S    0.131649   0.216489   0.112231  -0.171153   0.134610
  158  C 40  X    0.029791   0.040940   0.042364  -0.059221  -0.011643
  159  C 40  Y    0.032708   0.058305   0.002307  -0.021139   0.058817
  160  C 40  Z    0.016142   0.028130   0.012481   0.009174   0.025625

                      6          7          8          9         10
                   -1.4866    -1.4301    -1.3176    -1.2507    -1.2342
                     A          A          A          A          A   
    1  C  1  S    0.007172   0.105958   0.238414   0.041981   0.003160
    2  C  1  X   -0.001959  -0.052052  -0.035031  -0.013484  -0.010183
    3  C  1  Y    0.061347   0.003199  -0.026497   0.109382  -0.006799
    4  C  1  Z    0.016848  -0.058274   0.064464   0.017843  -0.023427
    5  C  2  S   -0.141175   0.224893   0.091676  -0.131531   0.097279
    6  C  2  X    0.038926  -0.046669   0.069996   0.014400  -0.048535
    7  C  2  Y    0.045281   0.042290   0.014211   0.061026   0.026123
    8  C  2  Z   -0.027035  -0.005254   0.059038  -0.042303  -0.036100
    9  C  3  S    0.079122   0.001657   0.212229   0.129977  -0.110307
   10  C  3  X   -0.065648   0.049229  -0.043953   0.093367   0.031183
   11  C  3  Y   -0.006405  -0.023400   0.034588   0.011910   0.037469
   12  C  3  Z    0.053668   0.041255   0.006505   0.003575  -0.091837
   13  C  4  S   -0.126929   0.103419   0.037252   0.179475   0.065863
   14  C  4  X   -0.051271   0.044810  -0.081131  -0.040097   0.017864
   15  C  4  Y   -0.035190   0.003481   0.002052  -0.018648   0.088423
   16  C  4  Z    0.006142   0.023063  -0.015927   0.049000  -0.080798
   17  C  5  S    0.150666   0.110751   0.025979   0.218463  -0.074260
   18  C  5  X   -0.044219  -0.020526   0.089555  -0.020784   0.036853
   19  C  5  Y    0.012105  -0.046051  -0.078739  -0.010282  -0.038214
   20  C  5  Z    0.048742  -0.058162   0.040487   0.066603  -0.028808
   21  C  6  S    0.065619   0.159882  -0.189026   0.016039  -0.030859
   22  C  6  X    0.023118   0.030838   0.063140   0.080240   0.004494
   23  C  6  Y    0.036795  -0.069314  -0.016775   0.012151  -0.087447
   24  C  6  Z    0.059809   0.001909  -0.038686   0.044944  -0.066514
   25  C  7  S   -0.108976  -0.257099   0.107238   0.083626   0.161209
   26  C  7  X   -0.027530   0.025967   0.051135  -0.004275   0.024912
   27  C  7  Y   -0.054594   0.000142  -0.027728   0.019745  -0.013134
   28  C  7  Z   -0.007685  -0.041881   0.007027   0.012815  -0.002137
   29  C  8  S   -0.183197  -0.129354   0.068122  -0.024434   0.188765
   30  C  8  X    0.000447   0.065563  -0.051285  -0.048510   0.024289
   31  C  8  Y   -0.005590  -0.012496  -0.028642  -0.052493  -0.079228
   32  C  8  Z   -0.027433  -0.025597   0.011955  -0.012611  -0.009500
   33  C  9  S   -0.180967   0.089396  -0.021791  -0.004863   0.293121
   34  C  9  X   -0.003857   0.073663  -0.057777  -0.036990   0.003041
   35  C  9  Y   -0.000704  -0.014501  -0.027162  -0.055599   0.016623
   36  C  9  Z   -0.027952   0.020659  -0.003966   0.013878   0.018854
   37  C 10  S   -0.117814   0.241641  -0.098578  -0.075008   0.222065
   38  C 10  X    0.027546   0.036833   0.035628   0.014002  -0.041420
   39  C 10  Y    0.049917  -0.004190  -0.037833   0.012894  -0.038361
   40  C 10  Z   -0.010909   0.046721  -0.010700  -0.006435   0.006756
   41  C 11  S    0.080703  -0.180567   0.158729  -0.025698   0.017165
   42  C 11  X   -0.020152   0.020770   0.073749   0.064161   0.004890
   43  C 11  Y   -0.035892  -0.066886  -0.013475   0.022356   0.073484
   44  C 11  Z    0.060481  -0.002706   0.026369  -0.045976  -0.059253
   45  C 12  S    0.247387  -0.092127  -0.035058   0.232434  -0.074208
   46  C 12  X   -0.033531   0.028746   0.091489   0.047515   0.014296
   47  C 12  Y   -0.025748   0.026563  -0.056424  -0.048860  -0.037142
   48  C 12  Z   -0.019589  -0.061101   0.032455  -0.034318   0.072184
   49  C 13  S    0.140068  -0.213815   0.100629   0.130390   0.083702
   50  C 13  X   -0.039046   0.045902   0.069361  -0.010603  -0.050777
   51  C 13  Y    0.051531   0.039631  -0.019256   0.074440  -0.016563
   52  C 13  Z   -0.027792  -0.009026  -0.056170  -0.050043   0.035804
   53  C 14  S    0.198347  -0.121890  -0.155681  -0.057109  -0.135569
   54  C 14  X    0.047285   0.014773  -0.031801   0.123527  -0.003665
   55  C 14  Y   -0.042040   0.024169   0.018132  -0.009634  -0.022054
   56  C 14  Z    0.006334  -0.030849   0.058675   0.009815   0.092247
   57  C 15  S    0.129239  -0.106419   0.038959  -0.176819   0.081722
   58  C 15  X    0.051860  -0.044508  -0.079043   0.039973   0.016538
   59  C 15  Y   -0.033455   0.003499  -0.002752  -0.010892  -0.096554
   60  C 15  Z    0.002019   0.025133   0.015460   0.042434   0.083819
   61  C 16  S   -0.073096   0.001349   0.208477  -0.119564  -0.099216
   62  C 16  X    0.064987  -0.051629  -0.040490  -0.092676   0.033198
   63  C 16  Y   -0.003830  -0.023754  -0.036133   0.012811  -0.037016
   64  C 16  Z    0.050160   0.039228  -0.008462   0.001496   0.093461
   65  C 17  S   -0.235564  -0.072787   0.021386   0.237421  -0.108223
   66  C 17  X   -0.035775  -0.025564   0.090839  -0.032591  -0.055631
   67  C 17  Y    0.023928   0.025388   0.050861  -0.048913  -0.036891
   68  C 17  Z   -0.017170   0.068524   0.016141   0.023252  -0.034280
   69  C 18  S   -0.205125  -0.112033   0.155225  -0.031292  -0.225447
   70  C 18  X    0.036596  -0.021417  -0.015525  -0.123428  -0.012099
   71  C 18  Y    0.043324   0.024360  -0.024465  -0.013323   0.006078
   72  C 18  Z    0.002528   0.041027   0.044976   0.000627  -0.029047
   73  C 19  S   -0.144963  -0.134032  -0.004496  -0.190024  -0.115815
   74  C 19  X    0.046060   0.035072  -0.081133  -0.057944  -0.002492
   75  C 19  Y    0.035327   0.013676  -0.008172  -0.007771  -0.066930
   76  C 19  Z   -0.002592  -0.021909   0.014816  -0.040051  -0.078521
   77  C 20  S    0.052094  -0.032223  -0.211727  -0.161796  -0.190679
   78  C 20  X    0.067528   0.050062  -0.061089   0.089800  -0.000707
   79  C 20  Y    0.005047  -0.015146   0.037170   0.019180  -0.018082
   80  C 20  Z    0.049346  -0.034529  -0.010545  -0.002555  -0.058067
   81  C 21  S   -0.132297  -0.207773  -0.094157   0.164358   0.071808
   82  C 21  X   -0.038405  -0.049992   0.071090   0.020249   0.001968
   83  C 21  Y   -0.047796   0.042157   0.021238   0.058096  -0.047229
   84  C 21  Z   -0.026270   0.012361  -0.057941   0.043384  -0.015027
   85  C 22  S   -0.014925  -0.098130   0.243101  -0.047329  -0.015413
   86  C 22  X    0.005082   0.049469  -0.037314   0.017367  -0.002109
   87  C 22  Y    0.061188   0.004734   0.025688   0.110387   0.015747
   88  C 22  Z    0.016112  -0.058654  -0.061593   0.012061   0.015833
   89  C 23  S   -0.147214  -0.116743   0.031312  -0.209890  -0.099393
   90  C 23  X    0.041981   0.025488   0.088394   0.018676   0.037603
   91  C 23  Y    0.006657  -0.043159   0.079554  -0.019155   0.028645
   92  C 23  Z    0.044324  -0.053884  -0.039991   0.054584   0.026630
   93  C 24  S   -0.070102  -0.161290  -0.185692  -0.029952  -0.039139
   94  C 24  X   -0.023200  -0.028938   0.065274  -0.078397  -0.011755
   95  C 24  Y    0.030143  -0.064448   0.017389  -0.000582   0.079828
   96  C 24  Z    0.056808   0.007703   0.040478   0.037128   0.068371
   97  C 25  S    0.103774   0.257502   0.101739  -0.084076   0.145191
   98  C 25  X    0.027905  -0.026236   0.050469   0.000853   0.044375
   99  C 25  Y   -0.056384   0.000633   0.027425   0.022034   0.011584
  100  C 25  Z   -0.006405  -0.040662  -0.005822   0.010448   0.009137
  101  C 26  S    0.180051   0.129212   0.062468   0.010759   0.222784
  102  C 26  X   -0.001529  -0.066068  -0.050774   0.043030   0.037980
  103  C 26  Y   -0.007379  -0.012179   0.029141  -0.055137   0.079597
  104  C 26  Z   -0.026495  -0.024293  -0.010739  -0.012701   0.006182
  105  C 27  S    0.177364  -0.088825  -0.020462  -0.018613   0.331790
  106  C 27  X    0.004070  -0.072556  -0.055195   0.034554  -0.001855
  107  C 27  Y    0.001563  -0.015539   0.028649  -0.051091  -0.022324
  108  C 27  Z   -0.025919   0.020205   0.003811   0.013965  -0.018655
  109  C 28  S    0.109175  -0.236424  -0.091695   0.045781   0.225806
  110  C 28  X   -0.028418  -0.036102   0.038928  -0.012604  -0.059949
  111  C 28  Y    0.054277  -0.003663   0.040134   0.018700   0.044778
  112  C 28  Z   -0.008097   0.041547   0.007429  -0.004259   0.000016
  113  C 29  S   -0.082434   0.182802   0.153347   0.030902   0.005047
  114  C 29  X    0.019909  -0.019992   0.072681  -0.062412   0.014506
  115  C 29  Y   -0.032669  -0.066481   0.014233   0.022019  -0.064283
  116  C 29  Z    0.059217  -0.005715  -0.025859  -0.047916   0.057296
  117  C 30  S   -0.189366   0.112677  -0.160928   0.078321  -0.133844
  118  C 30  X   -0.047871  -0.015550  -0.031720  -0.120873  -0.006847
  119  C 30  Y   -0.038801   0.022478  -0.015558  -0.011099   0.024484
  120  C 30  Z    0.009249  -0.036018  -0.059755   0.013565  -0.084923
  121  C 31  S   -0.239982   0.088596  -0.032158  -0.209687  -0.080323
  122  C 31  X    0.030742  -0.025941   0.096127  -0.050796   0.011729
  123  C 31  Y   -0.021681   0.029810   0.058064  -0.044215   0.039573
  124  C 31  Z   -0.015512  -0.069924  -0.030240  -0.027504  -0.077185
  125  C 32  S    0.146937   0.129854  -0.010431   0.187454  -0.082223
  126  C 32  X   -0.045930  -0.036456  -0.081680   0.055829   0.006898
  127  C 32  Y    0.034163   0.014740   0.007072  -0.011166   0.072324
  128  C 32  Z   -0.006013  -0.021645  -0.014734  -0.045220   0.078378
  129  C 33  S   -0.045928   0.021547  -0.215798   0.166327  -0.164326
  130  C 33  X   -0.066552  -0.051687  -0.058906  -0.087081  -0.010842
  131  C 33  Y    0.002765  -0.014761  -0.039725   0.016517   0.020149
  132  C 33  Z    0.044901  -0.031235   0.011738  -0.012331   0.062300
  133  C 34  S    0.130761   0.206666  -0.095015  -0.166589   0.031757
  134  C 34  X    0.037727   0.050042   0.071081  -0.017220  -0.000327
  135  C 34  Y   -0.050811   0.041578  -0.023221   0.059876   0.043071
  136  C 34  Z   -0.026082   0.013213   0.056354   0.043831   0.017542
  137  C 35  S    0.236842   0.074772   0.025508  -0.235096  -0.130531
  138  C 35  X    0.038637   0.027090   0.089792   0.033024  -0.055161
  139  C 35  Y    0.024581   0.024958  -0.050251  -0.052010   0.029199
  140  C 35  Z   -0.017906   0.065131  -0.017492   0.022342   0.027757
  141  C 36  S    0.211963   0.114055   0.155253   0.036892  -0.226227
  142  C 36  X   -0.034912   0.019117  -0.016717   0.124049  -0.001825
  143  C 36  Y    0.044870   0.025519   0.025747  -0.012941  -0.008793
  144  C 36  Z    0.000045   0.038517  -0.046768  -0.002006   0.035364
  145  C 37  S   -0.146416   0.117746  -0.056902   0.190929  -0.034384
  146  C 37  X   -0.045887   0.030430   0.072412   0.030075  -0.039002
  147  C 37  Y   -0.006420  -0.041212   0.072036  -0.002718  -0.039673
  148  C 37  Z    0.041826   0.050006   0.035604  -0.064845   0.020645
  149  C 38  S   -0.013981   0.092856  -0.241045   0.017794   0.051949
  150  C 38  X   -0.005209   0.047075  -0.037946   0.005379   0.010269
  151  C 38  Y   -0.057647   0.006757   0.023104   0.101869  -0.005475
  152  C 38  Z    0.013286   0.055658   0.059972  -0.023462  -0.005097
  153  C 39  S    0.012851  -0.098610  -0.237161  -0.025701   0.070086
  154  C 39  X    0.004588  -0.048367  -0.037507  -0.005845   0.018978
  155  C 39  Y   -0.056865   0.005691  -0.024908   0.099724   0.010370
  156  C 39  Z    0.013557   0.052148  -0.061753  -0.025771  -0.007073
  157  C 40  S    0.145509  -0.114920  -0.053041  -0.191103  -0.025866
  158  C 40  X    0.046225  -0.028057   0.073259  -0.027239  -0.038547
  159  C 40  Y   -0.006574  -0.042558  -0.071526  -0.005933   0.047159
  160  C 40  Z    0.042155   0.049313  -0.034070  -0.064987  -0.032667

                     11         12         13         14         15
                   -1.2228    -1.2201    -1.1318    -1.1138    -1.0583
                     A          A          A          A          A   
    1  C  1  S    0.130312  -0.092570  -0.140287   0.010536  -0.083194
    2  C  1  X   -0.059983   0.021410  -0.007136   0.016157   0.023737
    3  C  1  Y   -0.013098  -0.011195   0.049136   0.004052  -0.157029
    4  C  1  Z   -0.082659   0.006119  -0.082247   0.044634  -0.009792
    5  C  2  S    0.243884   0.012872  -0.060886  -0.101876   0.089420
    6  C  2  X   -0.005484  -0.049945  -0.042733   0.055544   0.018351
    7  C  2  Y    0.036439  -0.071134   0.070114  -0.065011  -0.071148
    8  C  2  Z    0.017967   0.003258  -0.070363   0.063996   0.054648
    9  C  3  S   -0.091735   0.180080   0.087053  -0.077450   0.185005
   10  C  3  X   -0.044021   0.041662  -0.126902   0.022894  -0.024931
   11  C  3  Y   -0.019126   0.018611   0.029240   0.039649   0.009526
   12  C  3  Z    0.015088  -0.045387  -0.042972  -0.081660   0.036487
   13  C  4  S   -0.143744   0.301088  -0.130722  -0.015063  -0.030114
   14  C  4  X    0.043300   0.022270  -0.051151  -0.004470  -0.089484
   15  C  4  Y   -0.047424   0.003316   0.004392  -0.007564  -0.018373
   16  C  4  Z    0.027199   0.021692  -0.039366   0.002610  -0.007302
   17  C  5  S    0.084670  -0.067461   0.084611   0.096131  -0.201829
   18  C  5  X    0.000739  -0.006243  -0.094418  -0.034063  -0.061728
   19  C  5  Y   -0.056447   0.038362   0.031658   0.053195   0.062771
   20  C  5  Z   -0.070011   0.045576  -0.093244   0.068794  -0.071728
   21  C  6  S    0.038341  -0.136183   0.276226  -0.036145   0.087673
   22  C  6  X    0.088408   0.014116   0.014397   0.009761  -0.098209
   23  C  6  Y   -0.049562   0.024909  -0.035765   0.110856   0.040925
   24  C  6  Z    0.003385   0.014093   0.023677   0.079612   0.015579
   25  C  7  S    0.076566  -0.106617   0.075510   0.300812   0.010080
   26  C  7  X   -0.129830  -0.015208  -0.020277   0.001356  -0.028452
   27  C  7  Y   -0.009656  -0.087403  -0.100571  -0.026328  -0.019559
   28  C  7  Z    0.040140  -0.007286   0.012187   0.012562   0.015178
   29  C  8  S   -0.222457  -0.191646  -0.076299   0.125026  -0.096689
   30  C  8  X   -0.074128   0.022462  -0.009031  -0.094893  -0.001435
   31  C  8  Y    0.017406  -0.089238  -0.049238  -0.041584  -0.023531
   32  C  8  Z   -0.017288  -0.031660  -0.027187   0.002585  -0.017481
   33  C  9  S   -0.221756   0.080133  -0.035680  -0.092763  -0.063538
   34  C  9  X    0.070187   0.019662   0.025106  -0.102671   0.009321
   35  C  9  Y   -0.025558  -0.116835   0.035045  -0.018838   0.004821
   36  C  9  Z   -0.020814   0.041244  -0.024120  -0.007473  -0.011203
   37  C 10  S    0.062331  -0.032097   0.143536  -0.257618   0.007410
   38  C 10  X    0.131819  -0.020026   0.031072  -0.005189   0.001945
   39  C 10  Y   -0.009430  -0.093123   0.098472   0.002589   0.023047
[...]
  132  C 33  Z    0.050338   0.062452  -0.066945   0.113900   0.038514
  133  C 34  S    0.005996   0.011222  -0.025854  -0.013918   0.042055
  134  C 34  X    0.029403  -0.004579   0.157216   0.039801   0.004850
  135  C 34  Y    0.027639   0.005658   0.132291   0.041174   0.022790
  136  C 34  Z   -0.014070  -0.005409  -0.285712  -0.104323   0.038440
  137  C 35  S    0.010484  -0.009331   0.014522   0.015323   0.000843
  138  C 35  X   -0.073753  -0.001284  -0.095498   0.011735  -0.026550
  139  C 35  Y   -0.124582  -0.011889  -0.149708   0.028529  -0.091841
  140  C 35  Z    0.051115   0.013567   0.136196  -0.003105   0.030415
  141  C 36  S   -0.006747  -0.011314   0.029434   0.021478  -0.058315
  142  C 36  X    0.003845  -0.011919   0.029461   0.003366  -0.015589
  143  C 36  Y   -0.102685   0.033066  -0.265796  -0.174680   0.110411
  144  C 36  Z    0.001879  -0.024238   0.046194   0.045852  -0.040682
  145  C 37  S    0.037652   0.001520  -0.017388   0.001356  -0.028442
  146  C 37  X   -0.139020   0.000776   0.003712   0.030197  -0.000517
  147  C 37  Y    0.159626  -0.018839  -0.044811  -0.051901  -0.021457
  148  C 37  Z    0.046325  -0.014757  -0.048789  -0.017493  -0.043925
  149  C 38  S    0.003154  -0.015795  -0.032785  -0.029271  -0.011636
  150  C 38  X   -0.075082   0.102886   0.276552   0.126383   0.034937
  151  C 38  Y   -0.024702  -0.002193  -0.021913   0.001124   0.006771
  152  C 38  Z    0.021269  -0.047310  -0.087278  -0.029227  -0.011799
  153  C 39  S   -0.015391  -0.002924   0.028668   0.042643   0.009863
  154  C 39  X    0.111040  -0.024247  -0.214992  -0.142469  -0.031597
  155  C 39  Y    0.002077   0.001866   0.018437  -0.007704   0.003037
  156  C 39  Z    0.026948   0.012400  -0.048473  -0.042720  -0.008627
  157  C 40  S   -0.007217   0.019122   0.049865  -0.023949   0.018340
  158  C 40  X    0.020928  -0.032355  -0.122737   0.007060  -0.005204
  159  C 40  Y    0.036711  -0.041358  -0.186388  -0.013523  -0.018676
  160  C 40  Z   -0.002818  -0.027059  -0.138408  -0.008763  -0.021999

                     86         87         88         89         90
                   -0.0677    -0.0629    -0.0580    -0.0543    -0.0498
                     A          A          A          A          A   
    1  C  1  S   -0.071805  -0.082903  -0.024008   0.063020   0.297988
    2  C  1  X   -0.111069  -0.130676  -0.100005   0.060031   0.301893
    3  C  1  Y    0.015377  -0.010137  -0.064458   0.023110  -0.006752
    4  C  1  Z    0.091246   0.058185   0.081743  -0.077416  -0.072612
    5  C  2  S    0.117944   0.086518  -0.021399  -0.101271  -0.113343
    6  C  2  X    0.156785   0.041450   0.001162  -0.068894  -0.162193
    7  C  2  Y   -0.091430   0.021820   0.030482   0.089745  -0.081594
    8  C  2  Z   -0.224136  -0.060852   0.062167   0.035234   0.036954
    9  C  3  S    0.040931   0.034358   0.013038   0.035861   0.025570
   10  C  3  X   -0.025013  -0.008595   0.014629   0.022947  -0.001265
   11  C  3  Y   -0.110710  -0.071842  -0.075796  -0.171032  -0.054753
   12  C  3  Z   -0.052403  -0.018044   0.013400  -0.047868  -0.026713
   13  C  4  S    0.057319   0.045566  -0.012062  -0.018548  -0.010328
   14  C  4  X    0.054288   0.028032   0.006010   0.038542  -0.002733
   15  C  4  Y   -0.154080  -0.022856  -0.031788   0.050986   0.032297
   16  C  4  Z   -0.199962  -0.028568   0.018963   0.140674   0.012893
   17  C  5  S    0.042616   0.049123   0.093756  -0.114917  -0.217044
   18  C  5  X    0.038874   0.090924   0.122217  -0.066503  -0.210776
   19  C  5  Y    0.006963   0.064382   0.171786  -0.104724  -0.179949
   20  C  5  Z    0.006505   0.008118  -0.086124   0.042455   0.087387
   21  C  6  S    0.004241   0.072279  -0.120283   0.051647   0.125994
   22  C  6  X    0.022730   0.003491  -0.045499   0.055113   0.098930
   23  C  6  Y    0.029997   0.121035  -0.132231   0.015301   0.092979
   24  C  6  Z   -0.086070  -0.208036   0.156210  -0.052276  -0.086696
   25  C  7  S    0.025427   0.043611  -0.044025  -0.033389   0.024657
   26  C  7  X    0.012646  -0.013872   0.050118  -0.014686  -0.011344
   27  C  7  Y   -0.042622  -0.019230  -0.025506   0.005844  -0.009198
   28  C  7  Z    0.050374   0.138864   0.121161   0.139401   0.007414
   29  C  8  S    0.015065   0.040798  -0.047599   0.037306   0.020256
   30  C  8  X    0.027164   0.031325  -0.042496  -0.020764   0.027632
   31  C  8  Y    0.005248   0.094797  -0.106017   0.051916   0.011769
   32  C  8  Z   -0.111476  -0.257153   0.238957  -0.079576  -0.076498
   33  C  9  S   -0.040123  -0.013891   0.028412   0.062279  -0.029726
   34  C  9  X    0.041210   0.057159  -0.057085   0.016912   0.006988
   35  C  9  Y    0.106060   0.027845  -0.025833  -0.080161   0.010835
   36  C  9  Z    0.179968   0.025617  -0.143259  -0.245087   0.096935
   37  C 10  S   -0.051856  -0.093232   0.062812  -0.043853  -0.002095
   38  C 10  X   -0.065181  -0.051483   0.017573   0.018422   0.024647
   39  C 10  Y    0.035459  -0.019459   0.059372  -0.029346  -0.081895
   40  C 10  Z    0.070071   0.179334  -0.031020   0.234993  -0.058482
   41  C 11  S   -0.065905  -0.062856   0.008749   0.039544  -0.026541
   42  C 11  X    0.008284   0.024983  -0.018844  -0.021306   0.001526
   43  C 11  Y    0.127444   0.076370  -0.031105  -0.012596   0.030213
   44  C 11  Z    0.165397   0.062956  -0.096031  -0.043353   0.046195
   45  C 12  S   -0.034802  -0.060708  -0.038280   0.135977   0.052357
   46  C 12  X   -0.016793  -0.079787  -0.021645   0.078587   0.072119
   47  C 12  Y    0.056884  -0.162990   0.051192   0.129439   0.060308
   48  C 12  Z   -0.000528  -0.046191   0.061910   0.020135  -0.099071
   49  C 13  S    0.073470  -0.005132   0.036700  -0.082082   0.128912
   50  C 13  X    0.078053   0.034332   0.052676  -0.031746   0.174945
   51  C 13  Y    0.043219   0.077264  -0.004625  -0.039859  -0.071771
   52  C 13  Z    0.159402   0.038293   0.010022   0.009829   0.056044
   53  C 14  S   -0.054654   0.063416  -0.036256  -0.097262   0.012093
   54  C 14  X    0.025279   0.021277   0.011758  -0.043151  -0.011382
   55  C 14  Y   -0.237794   0.061172  -0.211091  -0.174956  -0.027396
   56  C 14  Z   -0.066782  -0.002564  -0.016128  -0.001712  -0.029102
   57  C 15  S    0.043429  -0.002015   0.011188  -0.014839   0.014019
   58  C 15  X    0.053652  -0.018412   0.021002   0.033421   0.002775
   59  C 15  Y    0.135554   0.092365   0.086383  -0.020469   0.031856
   60  C 15  Z    0.155058   0.126897   0.041580  -0.089807   0.017914
   61  C 16  S    0.045604  -0.037709   0.019360   0.030072  -0.030456
   62  C 16  X   -0.010633  -0.008499   0.008261   0.012170   0.002949
   63  C 16  Y    0.074879  -0.121679   0.009698   0.106520  -0.073030
   64  C 16  Z    0.018456  -0.027313  -0.043439   0.036290  -0.028512
   65  C 17  S   -0.001607   0.068137  -0.063053   0.077126   0.019796
   66  C 17  X    0.010595  -0.110309   0.047689  -0.056543  -0.020135
   67  C 17  Y    0.020684   0.188581  -0.035541   0.130592   0.021037
   68  C 17  Z   -0.019341  -0.093328   0.049187  -0.042736  -0.016043
   69  C 18  S   -0.031884   0.022180  -0.032843  -0.053710   0.015961
   70  C 18  X   -0.005340   0.062953  -0.057014   0.018413   0.017854
   71  C 18  Y   -0.218999   0.024935  -0.140188  -0.084208   0.027831
   72  C 18  Z    0.034622  -0.001601   0.054343   0.005216   0.004853
   73  C 19  S    0.000302  -0.040465   0.053518  -0.034610   0.005439
   74  C 19  X   -0.027079   0.040443  -0.066562  -0.021529   0.038398
   75  C 19  Y    0.083036  -0.074351   0.147511  -0.124647   0.015700
   76  C 19  Z   -0.043193   0.120557  -0.205966   0.153114   0.003458
   77  C 20  S    0.024408  -0.055488   0.072669   0.065519  -0.070339
   78  C 20  X   -0.009725  -0.037482   0.042453  -0.015280  -0.027566
   79  C 20  Y    0.015489  -0.121772   0.102111   0.202544  -0.080712
   80  C 20  Z    0.053723   0.064344  -0.036167  -0.044679   0.042516
   81  C 21  S   -0.004977  -0.068712   0.089004  -0.039757  -0.030384
   82  C 21  X   -0.036666   0.052373  -0.114788   0.015709   0.027109
   83  C 21  Y    0.028821  -0.043696   0.084992  -0.021511  -0.009918
   84  C 21  Z   -0.055405   0.052891  -0.195514  -0.031659   0.027300
   85  C 22  S   -0.012793   0.037690  -0.067317   0.065784  -0.303532
   86  C 22  X   -0.038093   0.062892  -0.142182   0.075944  -0.300597
   87  C 22  Y    0.007230   0.001074   0.045396  -0.040957  -0.010178
   88  C 22  Z   -0.069111  -0.013805  -0.092007   0.076060  -0.075606
   89  C 23  S    0.021666   0.012992   0.088420  -0.133734   0.222132
   90  C 23  X    0.038322  -0.034927   0.132673  -0.094068   0.208795
   91  C 23  Y   -0.029291   0.003007  -0.152062   0.143014  -0.177409
   92  C 23  Z   -0.045224   0.013348   0.094717  -0.031691   0.079340
   93  C 24  S    0.042429  -0.077537  -0.089441   0.037330  -0.121018
   94  C 24  X    0.038050  -0.011749  -0.044367   0.061779  -0.100329
   95  C 24  Y   -0.068764   0.097375   0.115708   0.016418   0.088309
   96  C 24  Z    0.174038  -0.154622  -0.125020  -0.009147  -0.073140
   97  C 25  S    0.008034  -0.018360  -0.030908  -0.038240  -0.019451
   98  C 25  X   -0.009318   0.015668   0.046051  -0.010457   0.004205
   99  C 25  Y    0.021052   0.008499   0.030459   0.002109  -0.013092
  100  C 25  Z   -0.060793   0.204290  -0.046113  -0.052123   0.021862
  101  C 26  S    0.051890  -0.045198  -0.044767   0.030538  -0.014895
  102  C 26  X    0.017909  -0.006179  -0.026096  -0.023017  -0.022477
  103  C 26  Y   -0.053112   0.101326   0.092124  -0.020496  -0.002101
  104  C 26  Z    0.181617  -0.236488  -0.214720   0.008139  -0.060682
  105  C 27  S   -0.017975  -0.023790   0.019495   0.045038   0.026894
  106  C 27  X    0.055921  -0.040383  -0.031869   0.015108   0.000344
  107  C 27  Y   -0.045011  -0.037006   0.005203   0.053316   0.008109
  108  C 27  Z   -0.023765  -0.084116   0.144629   0.182406   0.097861
  109  C 28  S   -0.079643   0.074586   0.019300  -0.026833  -0.007685
  110  C 28  X   -0.070216   0.010079  -0.017335   0.012072  -0.033008
  111  C 28  Y   -0.010890  -0.039335  -0.060838   0.015672  -0.085094
  112  C 28  Z   -0.264459   0.165184  -0.026101  -0.157139  -0.073199
  113  C 29  S   -0.045637   0.012305  -0.007969   0.032360   0.028484
  114  C 29  X    0.001658  -0.009477  -0.017080  -0.024192  -0.002833
  115  C 29  Y   -0.041727   0.000543   0.020391   0.009645   0.029074
  116  C 29  Z   -0.013805  -0.053301   0.078682   0.021923   0.036226
  117  C 30  S   -0.041640  -0.050079  -0.026020  -0.125282  -0.010460
  118  C 30  X    0.062081   0.018889  -0.004097  -0.060300   0.017139
  119  C 30  Y    0.192057   0.107751   0.169108   0.212410  -0.031572
  120  C 30  Z    0.041135   0.025864   0.009615   0.007458  -0.033177
  121  C 31  S   -0.073958  -0.022948  -0.006709   0.175988  -0.064219
  122  C 31  X   -0.096567   0.014252   0.003571   0.128922  -0.086155
  123  C 31  Y    0.100913  -0.089236  -0.078047  -0.231711   0.076486
  124  C 31  Z    0.086937  -0.012435  -0.091450  -0.063401  -0.086159
  125  C 32  S   -0.032371   0.051678   0.043267  -0.025607  -0.015617
  126  C 32  X   -0.004062  -0.038691  -0.059336  -0.037797  -0.031265
  127  C 32  Y    0.061618  -0.112623  -0.099338   0.088977   0.039358
  128  C 32  Z   -0.129653   0.153224   0.152377  -0.112073  -0.024537
  129  C 33  S    0.028491   0.040466   0.057982   0.082553   0.070125
  130  C 33  X   -0.030677   0.037349   0.031910  -0.002910   0.025879
  131  C 33  Y   -0.100117  -0.061073  -0.095764  -0.227294  -0.091056
  132  C 33  Z   -0.026532   0.015244   0.036495   0.053776   0.044506
  133  C 34  S   -0.026577   0.086951   0.084819  -0.008213   0.016388
  134  C 34  X    0.026850  -0.092381  -0.109775  -0.020741  -0.008122
  135  C 34  Y    0.064240  -0.070333  -0.071018   0.014149   0.005343
  136  C 34  Z   -0.083684   0.093738   0.170366   0.039330  -0.001047
  137  C 35  S    0.045906  -0.098782  -0.069314   0.056870  -0.007654
  138  C 35  X   -0.051860   0.113624   0.070042  -0.007772   0.007212
  139  C 35  Y   -0.142832   0.183290   0.088298  -0.042867   0.003460
  140  C 35  Z    0.097051  -0.078858  -0.073264  -0.009041  -0.002112
  141  C 36  S   -0.037614  -0.010044  -0.021670  -0.060590  -0.011884
  142  C 36  X    0.028432  -0.067818  -0.059685   0.000198  -0.008115
  143  C 36  Y    0.156022   0.044185   0.113615   0.101474   0.007846
  144  C 36  Z   -0.016421  -0.006613  -0.034469  -0.003301   0.008505
  145  C 37  S    0.039007  -0.033610   0.043593  -0.054054  -0.013324
  146  C 37  X   -0.078520   0.082879  -0.032634   0.049334   0.009696
  147  C 37  Y    0.078371  -0.128141   0.016110  -0.087520  -0.029179
  148  C 37  Z    0.035669  -0.006812  -0.008346  -0.031980  -0.006389
  149  C 38  S   -0.025784  -0.053206  -0.040339  -0.004601  -0.018770
  150  C 38  X    0.110889   0.134926   0.061526   0.041812   0.051598
  151  C 38  Y   -0.034068   0.041309   0.008383   0.027296   0.007956
  152  C 38  Z   -0.042619  -0.057141  -0.072642  -0.001143  -0.012037
  153  C 39  S    0.011260   0.041237  -0.032095   0.046831   0.025453
  154  C 39  X   -0.048738  -0.130208   0.042983  -0.066179  -0.060248
  155  C 39  Y    0.015713   0.048670  -0.008234  -0.015835   0.009023
  156  C 39  Z    0.002645  -0.030310   0.066253  -0.031835  -0.020834
  157  C 40  S    0.022149   0.071372   0.028446  -0.063021   0.006794
  158  C 40  X   -0.050773  -0.085106  -0.009327   0.046571  -0.004548
  159  C 40  Y   -0.078759  -0.153448   0.004509   0.053613  -0.028330
  160  C 40  Z   -0.074594  -0.024111   0.037011   0.033841  -0.009833

     ----------------------------------------------------------------
     PROPERTY VALUES FOR THE RHF   SELF-CONSISTENT FIELD WAVEFUNCTION
     ----------------------------------------------------------------

                    -------------
                    MOPAC CHARGES
                    -------------
         ATOM NO.   TYPE          CHARGE        ATOM  ELECTRON DENSITY
           1         C             -0.0077          4.0077
           2         C              0.0191          3.9809
           3         C             -0.0193          4.0193
           4         C             -0.0018          4.0018
           5         C              0.0020          3.9980
           6         C              0.0031          3.9969
           7         C              0.0308          3.9692
           8         C              0.0039          3.9961
           9         C              0.0293          3.9707
          10         C             -0.0153          4.0153
          11         C              0.0042          3.9958
          12         C              0.0011          3.9989
          13         C              0.0222          3.9778
          14         C              0.0202          3.9798
          15         C              0.0059          3.9941
          16         C             -0.0675          4.0675
          17         C             -0.0272          4.0272
          18         C              0.0303          3.9697
          19         C             -0.0099          4.0099
          20         C              0.0034          3.9966
          21         C              0.0097          3.9903
          22         C             -0.0106          4.0106
          23         C             -0.0053          4.0053
          24         C              0.0294          3.9706
          25         C              0.0563          3.9437
          26         C             -0.0190          4.0190
          27         C              0.0269          3.9731
          28         C             -0.0251          4.0251
          29         C              0.0500          3.9500
          30         C              0.0194          3.9806
          31         C             -0.0024          4.0024
          32         C              0.0161          3.9839
          33         C             -0.0187          4.0187
          34         C              0.0278          3.9722
          35         C              0.0078          3.9922
          36         C             -0.0067          4.0067
          37         C             -0.1141          4.1141
          38         C              0.0363          3.9637
          39         C             -0.0463          4.0463
          40         C             -0.0580          4.0580

          ---------------------
          ELECTROSTATIC MOMENTS
          ---------------------

 POINT   1           X           Y           Z (ANGS)      CHARGE
                 0.000000    0.000000    0.000000        0.00 (A.U.)
         DX          DY          DZ         /D/  (DEBYE)
     2.488560   -0.502578    0.658215    2.622740
 ...... END OF PROPERTY EVALUATION ......
 CPU     0: STEP CPU TIME=     0.03 TOTAL CPU TIME=          0.9 (      0.0 MIN)
 TOTAL WALL CLOCK TIME=          1.3 SECONDS, CPU UTILIZATION IS    68.81%
  $VIB   
          IVIB=   0 IATOM=   0 ICOORD=   0 E=     -172.7911417407
  4.919697284E-05-5.412516681E-05 1.766209596E-04 1.972539626E-04 8.028138230E-05
  1.045771846E-04 2.177381846E-04 3.565588834E-04 2.034048706E-04-8.497169740E-05
 -2.068616493E-04-2.529853190E-04-2.401150989E-04-3.260022852E-05 6.043027807E-05
  2.624890465E-04-2.369694157E-04 5.785225624E-05 3.843641135E-04-1.516254168E-04
 -1.141235445E-04 2.269800588E-05-2.706905201E-05 2.055575839E-04-9.606508729E-05
  9.121052730E-05-7.295503070E-05-9.731014381E-05 2.294005921E-04 2.731161302E-04
  1.538925870E-04-1.474084026E-04-1.454881639E-04-1.438772423E-05-1.006957067E-04
 -2.345539233E-04 1.483479295E-04-9.452541056E-06-3.930586204E-05-1.474379167E-04
  2.993096221E-05-1.790922468E-04-1.441650032E-04-1.301995026E-04-4.457946056E-05
  1.679923403E-04-1.458375951E-04 1.182585357E-04 1.249692833E-04-2.128860760E-04
 -2.092978427E-04 3.585160787E-05-3.802334460E-05-6.111742192E-05 2.304208389E-05
 -2.072085449E-05 3.141460648E-05-2.043569679E-04-9.838241999E-06 1.445561375E-04
 -1.738721189E-04 1.375562644E-04 2.810603900E-04 5.756292837E-05 8.751556430E-05
 -1.801619549E-04-3.798888968E-04-5.269121111E-05-1.043908867E-04 2.782837134E-04
  3.963897275E-04-2.859612248E-05 2.303975969E-04-8.017737057E-05-6.261460546E-04
 -2.280743044E-04-3.793563963E-05 4.688047033E-04-3.538403735E-05 1.356161615E-04
 -7.744377264E-06-8.666682380E-05-3.145795778E-04-5.288547891E-04-2.704762025E-04
  8.349001392E-05-1.364764111E-05-3.977601641E-04 3.491203619E-04 4.994518378E-04
  1.661449037E-04-2.212153755E-05 3.197917590E-04-3.026649787E-05 2.866936416E-04
 -6.472288898E-04-3.602600217E-05-2.912272261E-04-1.606811831E-04-1.030094557E-04
  4.581941737E-04 2.155592086E-04 1.166096143E-04 8.581870511E-05-4.338372836E-04
 -1.433362202E-04-2.552222344E-04 4.661128610E-05 1.706371858E-04-1.412988847E-04
  4.229872881E-04 7.362917792E-05-6.101828384E-05 1.024004671E-04 1.599994256E-04
 -1.442117575E-04 7.960928016E-05-1.275303006E-04 1.170199564E-04 2.727232349E-04
  2.488560441E+00-5.025776103E-01 6.582148833E-01
 ......END OF GEOMETRY SEARCH......
 CPU     0: STEP CPU TIME=     0.02 TOTAL CPU TIME=          0.9 (      0.0 MIN)
 TOTAL WALL CLOCK TIME=          1.3 SECONDS, CPU UTILIZATION IS    69.21%
                580000  WORDS OF DYNAMIC MEMORY USED
 EXECUTION OF GAMESS TERMINATED NORMALLY 21:10:26 27-MAY-2023    
 DDI: 263640 bytes (0.3 MB / 0 MWords) used by master data server.

 ----------------------------------------
 CPU timing information for all processes
 ========================================
 0: 0.656250 + 0.281250 = 0.937500
 1: 0.828125 + 0.140625 = 0.968750
 2: 0.390625 + 0.515625 = 0.906250
 3: 0.515625 + 0.531250 = 1.046875
 ----------------------------------------
           Disk usage (in bytes)       
 ========================================
 ----------------------------------------
            Local date and time          
 ========================================
27.05.2023 - 21:10:26,30                          
