          *******************************************************
          *                                                     *
          *          GAMESS VERSION = 30 SEP 2022 (R2)          *
          *                                                     *
          *              doi.org/10.1063/5.0005188              *
          *                                                     *
          *************** 64 BIT WINDOWS VERSION ****************

  GAMESS HAS BEEN MADE POSSIBLE WITH IMPORTANT CONTRIBUTIONS FROM
  THE FOLLOWING INDIVIDUALS (IN ALPHABETICAL ORDER):

     IVANA ADAMOVIC, CHRISTINE AIKENS, TOMOKO AKAMA,
     MELISA ALKAN, YURI ALEXEEV, YURIKO AOKI, POOJA ARORA,
     TOSHIO ASADA, ANDREY ASADCHEV, KIM K. BALDRIDGE,
     PRADIPTA BANDYOPADHYAY, TAYLOR A. BARNES, MARIA BARYSZ,
     ROB BELL, JONATHAN BENTZ, COLLEEN BERTONI,
     JERRY A. BOATZ, BRETT BODE, KURT BRORSEN, KURT R. BRORSEN,
     LAIMUTIS BYTAUTAS, CALEB CARLIN, LAURA CARRINGTON,
     GALINA CHABAN, BENOIT CHAMPAGNE, WEI CHEN, MAHITO CHIBA,
     DAN CHIPMAN, CHEOL HO CHOI, TANNER CULPITT,
     DIPAYAN DATTA, PAUL DAY, ALBERT DEFUSCO,
     NUWAN DESILVA, J. EMILIANO DEUSTUA,
     TIM DUDLEY, MICHEL DUPUIS, STEVEN T. ELBERT,
     DMITRI FEDOROV, KATHERINE FERRERAS, MICHAEL FILATOV,
     ALEX FINDLATER,GRAHAM FLETCHER, MARK FREITAG,
     CHRISTIAN FRIEDL, DAVID GARMER, 
     IGOR S. GERASIMOV, KURT GLAESEMANN,
     MARK S. GORDON, JEFFREY GOUR, FENG LONG GU,
     EMILIE B. GUIDEZ, ANASTASIA GUNINA, SHARON HAMMES-SCHIFFER,
     MASATAKE HARUTA, KIMIHIKO HIRAO, YASUHIRO IKABATA,
     TZVETELIN IORDANOV, STEPHAN IRLE, KAZUYA ISHIMURA,
     JOE IVANIC, FRANK JENSEN, JAN H. JENSEN, VISVALDAS KAIRYS,
     MUNEAKI KAMIYA, MICHIO KATOUDA, NAOAKI KAWAKAMI, DAN KEMP,
     BERNARD KIRTMAN, KAZUO KITAURA, MARIUSZ KLOBUKOWSKI,
     MASATO KOBAYASHI, KONSTANTIN KOMAROV, PRAKASHAN KORAMBATH,
     JACEK KORCHOWIEC, SHIRO KOSEKI, KAROL KOWALSKI,
     JIMMY KROMANN, STANISLAW KUCHARSKI, HENRY KURTZ,
     SAROM SOK LEANG, SEUNGHOON LEE, HUI LI, SHUHUA LI, WEI LI,
     JESSE LUTZ, ALEKSANDR O. LYKHIN, MARCIN MAKOWSKI,
     JOANI MATO, NIKITA MATSUNAGA, BENEDETTA MENNUCCI,
     GRANT MERRILL, NORIYUKI MINEZAWA, VLADIMIR MIRONOV,
     EISAKU MIYOSHI, JOHN A. MONTGOMERY JR., HIROTOSHI MORI,
     JONATHAN MULLIN, MONIKA MUSIAL, SHIGERU NAGASE,
     TAKESHI NAGATA, HIROMI NAKAI, TAKAHITO NAKAJIMA,
     YUYA NAKAJIMA, HARUYUKI NAKANO, HIROYA NAKATA, SEAN NEDD,
     HEATHER NETZLOFF, KIET A. NGUYEN, YOSHIO NISHIMOTO,
     BOSILJKA NJEGIC, RYAN OLSON, MIKE PAK, ROBERTO PEVERATI,
     BUU PHAM, PIOTR PIECUCH, ANNA POMOGAEVA, DAVID POOLE,
     SPENCER PRUITT, OLIVIER QUINET, LUKE ROSKOP,
     KLAUS RUEDENBERG, ANDREW SAND, TOSAPORN SATTASATHUCHANA,
     NOZOMI SAWADA, MICHAEL W. SCHMIDT, PATRICK E. SCHNEIDER,
     JUNJI SEINO, PRACHI SHARMA, JUN SHEN, JIM SHOEMAKER,
     YINAN SHU, DEJUN SI, JONATHAN SKONE, LYUDMILA SLIPCHENKO,
     TONY SMITH, JIE SONG, MARK SPACKMAN, CASPER STEINMANN,
     WALT STEVENS, PEIFENG SU, SHUJUN SU, CHET SWALINA,
     CHINAMI TAKASHIMA, TETSUYA TAKETSUGU, ZHEN TAO,
     NANDUN THELLAMUREGE, SEIKEN TOKURA, JACOPO TOMASI,
     TSUGUKI TOUMA, TAKAO TSUNEDA, HIROAKI UMEDA,
     JORGE LUIS GALVEZ VALLEJO, YALI WANG, SIMON WEBB,
     AARON WEST, THERESA L. WINDUS, MARTA WLOCH,
     PENG XU, KIYOSHI YAGI, SUSUMU YANAGISAWA, YANG YANG,
     SOOHAENG YOO, TAKESHI YOSHIKAWA, FEDERICO ZAHARIEV,
     TOBY ZENG

  WHO ARE SUPPORTED BY THEIR INSTITUTION/UNIVERSITY/COMPANY/GROUP
  (IN ALPHABETICAL ORDER):

     EP ANALYTICS,
     FACULTES UNIVERSITAIRES NOTRE-DAME DE LA PAIX,
     INSTITUTE FOR MOLECULAR SCIENCE, IOWA STATE UNIVERSITY,
     JACKSON STATE UNIVERSITY, JOHANNES KEPLER UNIVERSITY LINZ,
     KYUNGPOOK NATIONAL UNIVERSITY
     KYUSHU UNIVERSITY, MICHIGAN STATE UNIVERSITY,
     MIE UNIVERSITY, THE MOLECULAR SCIENCES SOFTWARE INSTITUTE,
     MOSCOW STATE UNIVERSITY,
     N. COPERNICUS UNIVERSITY, NAGOYA UNIVERSITY,
     NANJING UNIVERSITY, NAT. INST. OF ADVANCED INDUSTRIAL
     SCIENCE AND TECHNOLOGY, NATIONAL INST. OF STANDARDS AND
     TECHNOLOGY, NESMEYANOV INSTITUTE OF ORGANOELEMENT COMPOUNDS
     OF RUSSIAN ACADEMY OF SCIENCES, OSAKA PREFECTURE UNIVERSITY,
     PENNSYLVANIA STATE UNIVERSITY, TOKYO INSTITUTE OF TECHNOLOGY,
     UNIVERSITY OF AARHUS, UNIVERSITY OF ALBERTA,
     UNIVERSITY OF CALIFORNIA AT SANTA BARBARA,
     UNIVERSITY OF COPENHAGEN, UNIVERSITY OF IOWA,
     UNIVERSITY OF MEMPHIS, UNIVERSITY OF MINNESOTA,
     UNIVERSITY OF NEBRASKA, UNIVERSITY OF NEW ENGLAND,
     UNIVERSITY OF NOTRE DAME, UNIVERSITY OF PISA,
     UNIVERSITY OF SILESIA, UNIVERSITY OF TOKYO,
     UNIVERSITY OF ZURICH, WASEDA UNIVERSITY,
     YALE UNIVERSITY

  GAMESS SOFTWARE MANAGEMENT TEAM FOR THIS RELEASE:
     MARK S. GORDON (TEAM LEAD),
     BRETT BODE (SENIOR ADVISOR),
     GIUSEPPE BARCA,
     COLLEEN BERTONI,
     KRISTOPHER KEIPERT (ADVISOR),
     SAROM S. LEANG (DEVELOPMENT LEAD),
     BUU PHAM,
     JACKSON HAYES (WEBSITE ADMINISTRATOR),
     PENG XU


 PARALLEL VERSION RUNNING ON        2 PROCESSORS IN        2 NODES.

 EXECUTION OF GAMESS BEGUN 21:10:13 27-MAY-2023    

            ECHO OF THE FIRST FEW INPUT CARDS -
 INPUT CARD>! (Energy/Geometry) PM3                                                         
 INPUT CARD> $CONTRL                                                                        
 INPUT CARD>COORD=UNIQUE                                                                    
 INPUT CARD>ICHARG=0                                                                        
 INPUT CARD>MAXIT=200                                                                       
 INPUT CARD>MULT=1                                                                          
 INPUT CARD>RUNTYP=OPTIMIZE                                                                 
 INPUT CARD>SCFTYP=RHF                                                                      
 INPUT CARD>UNITS=ANGS                                                                      
 INPUT CARD>! DFTTYP=PBE                                                                    
 INPUT CARD> $END                                                                           
 INPUT CARD> $DFT                                                                           
 INPUT CARD>METHOD=GRID                                                                     
 INPUT CARD> $END                                                                           
 INPUT CARD> $BASIS                                                                         
 INPUT CARD>! EXTFIL=.T.                                                                    
 INPUT CARD>! GBASIS=GEGSSBAS                                                               
 INPUT CARD>! NGAUSS=6                                                                      
 INPUT CARD>GBASIS=PM3                                                                      
 INPUT CARD>! NDFUNC=1                                                                      
 INPUT CARD>! NPFUNC=1                                                                      
 INPUT CARD> $END                                                                           
 INPUT CARD> $SCF                                                                           
 INPUT CARD>DAMP=.F.                                                                        
 INPUT CARD>DEM=.F.                                                                         
 INPUT CARD>DIIS=.F.                                                                        
 INPUT CARD>DIRSCF=.T.                                                                      
 INPUT CARD>EXTRAP=.T.                                                                      
 INPUT CARD>RSTRCT=.F.                                                                      
 INPUT CARD>SHIFT=.F.                                                                       
 INPUT CARD>SOSCF=.T.                                                                       
 INPUT CARD> $END                                                                           
 INPUT CARD> $STATPT                                                                        
 INPUT CARD>METHOD=QA                                                                       
 INPUT CARD>NSTEP=100                                                                       
 INPUT CARD>OPTTOL=0.001                                                                    
 INPUT CARD> $END                                                                           
 INPUT CARD> $GUESS                                                                         
 INPUT CARD>GUESS=HUCKEL                                                                    
 INPUT CARD> $END                                                                           
 INPUT CARD> $SYSTEM                                                                        
 INPUT CARD>MWORDS=10                                                                       
 INPUT CARD> $END                                                                           
 INPUT CARD> $DATA                                                                          
 INPUT CARD>C40 FULLERENE                                                                   
 INPUT CARD>C1                                                                              
 INPUT CARD>C	6.0	2.1912	-1.5983	-1.0316                                                    
 INPUT CARD>C	6.0	1.1196	-2.3974	-1.149                                                     
 INPUT CARD>C	6.0	-2.2281	-1.7576	-0.5922                                                   
 INPUT CARD>C	6.0	-1.0576	-2.4381	-0.7684                                                   
     10000000 WORDS OF MEMORY AVAILABLE

     BASIS OPTIONS
     -------------
     GBASIS=PM3          IGAUSS=       0      POLAR=NONE    
     NDFUNC=       0     NFFUNC=       0     DIFFSP=       F
     NPFUNC=       0      DIFFS=       F     BASNAM=        


     RUN TITLE
     ---------
 C40 FULLERENE                                                                   

 THE POINT GROUP OF THE MOLECULE IS C1      
 THE ORDER OF THE PRINCIPAL AXIS IS     0

 ATOM      ATOMIC                      COORDINATES (BOHR)
           CHARGE         X                   Y                   Z
 C           6.0     4.1407675843       -3.0203490462       -1.9494413289
 C           6.0     2.1157372159       -4.5304290830       -2.1712951599
 C           6.0    -4.2104984732       -3.3213823960       -1.1190957299
 C           6.0    -1.9985742046       -4.6073409307       -1.4520654490
 C           6.0    -0.1258557508       -3.6108884173       -3.0993395925
 C           6.0     4.1566412826       -0.5897834808       -2.8495178169
 C           6.0     1.5087572286        3.1019852088       -3.2790525339
 C           6.0     1.8995525629        0.4934074554       -3.8962370415
 C           6.0    -0.3467647187       -1.0845137444       -4.0464702575
 C           6.0    -2.7642911748        0.0253223282       -3.7082093057
 C           6.0    -4.7861090091       -1.1858030573       -2.5282643990
 C           6.0     4.9251928418        3.0649465795       -0.4149838269
 C           6.0     5.5448339932        0.7027890948       -1.0200740882
 C           6.0     3.1722830156        4.4370766192       -1.6909268138
 C           6.0    -4.9856640734       -2.7030640528        1.3226192188
 C           6.0    -6.1642861719       -0.4382274566        1.1175839491
 C           6.0    -6.2680321287        0.4994545786       -1.2526993573
 C           6.0    -0.9299341586        4.0387223810       -2.7665588460
 C           6.0    -3.0704267849        2.5962945345       -3.0554979495
 C           6.0    -2.9657359651       -2.5911922744        3.0097665806
 C           6.0    -0.8399832015       -4.0366436824        2.7232841209
 C           6.0    -0.6366486853       -5.6062500878        0.5854371110
 C           6.0     1.8167825646       -5.7676326871        0.0723765053
 C           6.0     3.3045638347       -4.5308070282        1.7582010590
 C           6.0     5.6835398807       -0.7832914219        1.1175839491
 C           6.0     5.0905438657       -3.1641571938        0.4918956746
 C           6.0    -4.6496707928        1.1767323726        2.4405811131
 C           6.0    -2.6533642594       -0.0328812322        3.6541631425
 C           6.0    -0.2382944471        1.0841357992        3.9916682039
 C           6.0     2.0191722179       -0.5073914277        3.8724264940
 C           6.0     1.6176054455       -3.1386458930        3.2784856161
 C           6.0     4.3212364161        0.6135940282        2.9186817880
 C           6.0    -4.1955696379        3.3336656149        1.0504986766
 C           6.0    -1.9643701642        4.5691684657        1.4343020247
 C           6.0    -0.0379834924        3.6437696495        3.0796864422
 C           6.0    -5.1033940024        2.7816766539       -1.3655159987
 C           6.0    -0.6527113562        5.5896204991       -0.6162396446
 C           6.0     1.7822005790        5.7649870707       -0.0088817121
 C           6.0     2.2366796791        4.6421118888        2.2714506372
 C           6.0     4.2499937464        3.0946152775        2.1070444763

          INTERNUCLEAR DISTANCES (ANGS.)
          ------------------------------

                1 C          2 C          3 C          4 C          5 C     

   1 C       0.0000000    1.3418905 *  4.4439466    3.3658936    2.3591501 *
   2 C       1.3418905 *  0.0000000    3.4534715    2.2105910 *  1.3729637 *
   3 C       4.4439466    3.4534715    0.0000000    1.3653560 *  2.4069996 *
   4 C       3.3658936    2.2105910 *  1.3653560 *  0.0000000    1.4212625 *
   5 C       2.3591501 *  1.3729637 *  2.4069996 *  1.4212625 *  0.0000000  
   6 C       1.3715840 *  2.3756442 *  4.7468415    3.9593040    2.7765052 *
   7 C       3.5960046    4.0938384    4.6925507    4.5850381    3.6573357  
   8 C       2.4341891 *  2.8131679 *  4.0852298    3.6350664    2.4584011 *
   9 C       2.8142547 *  2.4510979 *  2.8251098 *  2.4747014 *  1.4325392 *
  10 C       4.1006701    3.6252177    2.3662838 *  2.7567075 *  2.3991109 *
  11 C       4.8323393    4.0629453    1.3877953 *  2.4038558 *  2.7963964 *
  12 C       3.3468403    4.3850694    5.9102686    5.4962664    4.6521161  
  13 C       2.1623146 *  3.3664403    5.5845194    4.8870057    3.9276176  
  14 C       3.9817903    4.7849798    5.6754387    5.5145324    4.6625016  
  15 C       5.1332595    4.2982942    1.3945775 *  2.3811713 *  3.5099893  
  16 C       5.8513732    5.1881404    2.1903467 *  3.4023160    4.2436869  
  17 C       5.8261809    5.1964865    2.2975125 *  3.5239938    4.0311822  
  18 C       4.6196351    4.8227999    4.3523785    4.6622977    4.0741092  
  19 C       4.8722074    4.6875756    3.3496676    3.9462656    3.6356264  
  20 C       4.5913655    3.9750127    2.3145148 *  2.6410241 *  3.6056306  
  21 C       3.6538184    3.0369894    2.7310804 *  2.3127875 *  3.1124527  
  22 C       3.1722487    2.1385958 *  2.4191247 *  1.4004791 *  2.2338525 *
  23 C       2.1841768 *  1.3650424 *  3.4994529    2.2592304 *  2.2751651 *
  24 C       2.1642853 *  2.1724804 *  4.3061408    3.2806831    3.1842988  
  25 C       2.1684143 *  3.2442917    5.5332975    4.7402388    4.0827946  
  26 C       1.3883096 *  2.2331505 *  4.9958761    3.9641472    3.3596448  
  27 C       5.6540205    5.2814922    3.0443659    3.9471272    4.5545206  
  28 C       4.9212225    4.6407436    3.1760735    3.6443374    4.2598024  
  29 C       4.4689563    4.5842427    4.1433904    4.2704876    4.5007540  
  30 C       3.5383827    3.8423053    4.4790607    4.1432276    4.1948225  
  31 C       3.0724909    2.9881092 *  3.8647662    3.2453683    3.5077437  
  32 C       3.2161064    4.0033602    5.4115505    4.9159854    4.5472143  
  33 C       5.7694315    5.6016989    3.7041284    4.5567416    4.7922123  
  34 C       5.4565129    5.6115320    4.5467914    5.0905809    5.0437941  
  35 C       4.9405028    5.2660142    4.8370678    5.0884050    5.0429828  
  36 C       5.7837644    5.4541728    3.2665848    4.2415125    4.3844154  
  37 C       5.2622265    5.6127202    5.0844182    5.4607393    5.0506005  
  38 C       4.9219385    5.5697727    5.7897681    5.8917708    5.3207621  
  39 C       4.7376819    5.3936669    5.7111723    5.7325878    5.3585298  
  40 C       3.8835913    4.7626112    5.8725071    5.5760317    5.0540797  

                6 C          7 C          8 C          9 C         10 C     

   1 C       1.3715840 *  3.5960046    2.4341891 *  2.8142547 *  4.1006701  
   2 C       2.3756442 *  4.0938384    2.8131679 *  2.4510979 *  3.6252177  
   3 C       4.7468415    4.6925507    4.0852298    2.8251098 *  2.3662838 *
   4 C       3.9593040    4.5850381    3.6350664    2.4747014 *  2.7567075 *
   5 C       2.7765052 *  3.6573357    2.4584011 *  1.4325392 *  2.3991109 *
   6 C       0.0000000    2.4148664 *  1.4359508 *  2.4796976 *  3.7048081  
   7 C       2.4148664 *  0.0000000    1.4335055 *  2.4570393 *  2.7955875 *
   8 C       1.4359508 *  1.4335055 *  0.0000000    1.4548378 *  2.4823939 *
   9 C       2.4796976 *  2.4570393 *  1.4548378 *  0.0000000    1.4190034 *
  10 C       3.7048081    2.7955875 *  2.4823939 *  1.4190034 *  0.0000000  
  11 C       4.7458445    4.0499920    3.7189216    2.4833576 *  1.3947452 *
  12 C       2.3591265 *  2.3592223 *  2.7944586 *  4.0370104    4.7097612  
  13 C       1.3945289 *  2.7572644 *  2.4596345 *  3.6303434    4.6352602  
  14 C       2.7790935 *  1.4072464 *  2.4840779 *  3.6822616    4.0569614  
  15 C       5.4341745    5.2131745    4.8747565    3.8512404    3.2486409  
  16 C       5.8517149    5.0407880    5.0489123    4.1305902    3.1334767  
  17 C       5.6105289    4.4701455    4.5428493    3.5646096    2.2779548 *
  18 C       3.6395393    1.4087790 *  2.4736660 *  2.8114111 *  2.3876951 *
  19 C       4.1809703    2.4407996 *  2.8901834 *  2.4791664 *  1.4129775 *
  20 C       4.9940739    5.0752100    4.7590271    4.0619161    3.8166092  
  21 C       4.3606011    5.0895917    4.4853658    3.9169094    4.1521581  
  22 C       4.0969216    5.1678272    4.2242646    3.4288358    3.9129382  
  23 C       3.3810462    5.0201347    3.9229622    3.4932689    4.3904939  
  24 C       3.2400506    4.9318173    4.0712085    4.0613568    4.9491784  
  25 C       2.2517571 *  3.8106126    3.3919775    4.2043046    5.1661357  
  26 C       2.2861816 *  4.3092638    3.4626115    3.9061027    5.0065900  
  27 C       5.5160696    4.5628166    4.8359541    4.2896033    3.4574364  
  28 C       4.9918045    4.5895297    4.6740035    4.2901261    3.8965639  
  29 C       4.3931048    4.0985550    4.3359739    4.4060633    4.3247044  
  30 C       3.7328606    4.2476743    4.1454558    4.3841833    4.7517449  
  31 C       3.7603556    4.7906949    4.2580836    4.1577705    4.6743344  
  32 C       3.1193343    3.8347661    3.8277522    4.5270842    5.1432776  
  33 C       5.3013686    3.7915849    4.4175296    4.1096568    3.1591037  
  34 C       4.8045296    3.1940111    4.0974989    4.2538622    3.6559919  
  35 C       4.4486566    3.4748656    4.1782334    4.5285367    4.3186000  
  36 C       5.2736770    3.6465175    4.1222190    3.5403685    2.2795874 *
  37 C       4.3088950    2.2420415 *  3.4798714    3.9742639    3.5490581  
  38 C       3.8918924    2.2363839 *  3.4666100    4.3556873    4.3411685  
  39 C       4.0051167    3.0724173    3.9375117    4.7148639    4.7942638  
  40 C       3.2685432    3.1981081    3.6788380    4.6272322    5.0877559  

               11 C         12 C         13 C         14 C         15 C     

   1 C       4.8323393    3.3468403    2.1623146 *  3.9817903    5.1332595  
   2 C       4.0629453    4.3850694    3.3664403    4.7849798    4.2982942  
   3 C       1.3877953 *  5.9102686    5.5845194    5.6754387    1.3945775 *
   4 C       2.4038558 *  5.4962664    4.8870057    5.5145324    2.3811713 *
   5 C       2.7963964 *  4.6521161    3.9276176    4.6625016    3.5099893  
   6 C       4.7458445    2.3591265 *  1.3945289 *  2.7790935 *  5.4341745  
   7 C       4.0499920    2.3592223 *  2.7572644 *  1.4072464 *  5.2131745  
   8 C       3.7189216    2.7944586 *  2.4596345 *  2.4840779 *  4.8747565  
   9 C       2.4833576 *  4.0370104    3.6303434    3.6822616    3.8512404  
  10 C       1.3947452 *  4.7097612    4.6352602    4.0569614    3.2486409  
  11 C       0.0000000    5.7201151    5.6145133    5.1755027    2.1928129 *
  12 C       5.7201151    0.0000000    1.3313701 *  1.3577769 *  6.1374135  
  13 C       5.6145133    1.3313701 *  0.0000000    2.3679688 *  5.9864762  
  14 C       5.1755027    1.3577769 *  2.3679688 *  0.0000000    5.9544827  
  15 C       2.1928129 *  6.1374135    5.9864762    5.9544827    0.0000000  
  16 C       2.1001372 *  6.2073537    6.3274863    5.7684652    1.3554247 *
  17 C       1.3659802 *  6.0929378    6.2532378    5.4177119    2.2780979 *
  18 C       3.4385339    3.3784831    3.9635794    2.2540625 *  4.6921645  
  19 C       2.2153387 *  4.4627523    4.7904728    3.5190072    3.7760883  
  20 C       3.1732401    5.4478940    5.2790498    5.5290378    1.3939669 *
  21 C       3.7893659    5.1174084    4.6507679    5.4837542    2.4207743 *
  22 C       3.6067034    5.4770376    4.7505963    5.8103133    2.7944298 *
  23 C       4.4700499    4.9617018    3.9937345    5.5268685    4.0031819  
  24 C       5.1583742    4.2678283    3.3521677    5.0849754    4.4982636  
  25 C       5.8704763    2.2283823 *  1.3796470 *  3.4067832    5.7375963  
  26 C       5.5647592    3.3321996    2.2102705 *  4.3063193    5.3557515  
  27 C       2.9123800 *  5.3809187    5.7025738    4.9889422    2.1440203 *
  28 C       3.5141609    4.8381105    5.0090522    4.8061612    2.2454579 *
  29 C       4.3747554    3.7419902    4.0546016    3.9304063    3.5103332  
  30 C       4.9568104    3.3295487    3.2548225    3.9856684    4.1122972  
  31 C       4.6897018    4.2024274    3.6912669    4.8645078    3.6516418  
  32 C       5.6957467    2.2128987 *  2.1830691 *  3.2270097    5.2961637  
  33 C       3.0665755    4.8904727    5.4503778    4.2008203    3.2249611  
  34 C       3.9876180    3.8578662    4.6543839    3.1825386    4.1676213  
  35 C       4.6531077    3.2267177    3.9820458    3.0716858    4.3588638  
  36 C       2.1942390 *  5.3327916    5.7440932    4.4693733    3.2328491  
  37 C       4.3200826    3.2417235    4.1819660    2.1891502 *  5.0564062  
  38 C       5.2333319    2.2031536 *  3.3803522    1.3517295 *  5.7795453  
  39 C       5.4564671    2.1775167 *  3.2317216    2.1571895 *  5.4742137  
  40 C       5.8319852    1.3816899 *  2.1931390 *  2.2066278 *  5.7853810  

               16 C         17 C         18 C         19 C         20 C     

   1 C       5.8513732    5.8261809    4.6196351    4.8722074    4.5913655  
   2 C       5.1881404    5.1964865    4.8227999    4.6875756    3.9750127  
   3 C       2.1903467 *  2.2975125 *  4.3523785    3.3496676    2.3145148 *
   4 C       3.4023160    3.5239938    4.6622977    3.9462656    2.6410241 *
   5 C       4.2436869    4.0311822    4.0741092    3.6356264    3.6056306  
   6 C       5.8517149    5.6105289    3.6395393    4.1809703    4.9940739  
   7 C       5.0407880    4.4701455    1.4087790 *  2.4407996 *  5.0752100  
   8 C       5.0489123    4.5428493    2.4736660 *  2.8901834 *  4.7590271  
   9 C       4.1305902    3.5646096    2.8114111 *  2.4791664 *  4.0619161  
  10 C       3.1334767    2.2779548 *  2.3876951 *  1.4129775 *  3.8166092  
  11 C       2.1001372 *  1.3659802 *  3.4385339    2.2153387 *  3.1732401  
  12 C       6.2073537    6.0929378    3.3784831    4.4627523    5.4478940  
  13 C       6.3274863    6.2532378    3.9635794    4.7904728    5.2790498  
  14 C       5.7684652    5.4177119    2.2540625 *  3.5190072    5.5290378  
  15 C       1.3554247 *  2.2780979 *  4.6921645    3.7760883    1.3939669 *
  16 C       0.0000000    1.3499989 *  4.1844534    3.1836467    2.2727738 *
  17 C       1.3499989 *  0.0000000    3.4826729    2.2370808 *  3.2888217  
  18 C       4.1844534    3.4826729    0.0000000    1.3744143 *  4.7762811  
  19 C       3.1836467    2.2370808 *  1.3744143 *  0.0000000    4.2237632  
  20 C       2.2727738 *  3.2888217    4.7762811    4.2237632    0.0000000  
  21 C       3.5051782    4.2941143    5.1674911    4.8025589    1.3687420 *
  22 C       4.0143044    4.5017670    5.4055757    4.9205353    2.3896671 *
  23 C       5.1084788    5.4583918    5.5944975    5.3867981    3.4127017  
  24 C       5.4692131    5.9400858    5.5963155    5.6651083    3.5358063  
  25 C       6.2722585    6.4833123    4.7941362    5.4345279    4.7819249  
  26 C       6.1369363    6.3827400    5.2584659    5.6094847    4.4768398  
  27 C       1.3648749 *  2.1636892 *  3.7095942    3.1179298    2.2046355 *
  28 C       2.3020799 *  3.2373585    4.1253376    3.8198409    1.4058377 *
  29 C       3.5771493    4.2401259    3.9202564    4.0979695    2.4770416 *
  30 C       4.5694366    5.1837337    4.5349133    4.8364896    2.8953162 *
  31 C       4.5063907    5.1835253    5.1454736    5.1574163    2.4467759 *
  32 C       5.6574088    6.0230056    4.4786112    5.1376165    4.2128265  
  33 C       2.2518045 *  2.2220766 *  2.6843117 *  2.2864420 *  3.3657987  
  34 C       3.4625187    3.4418517    2.3065490 *  2.6603407 *  3.9157539  
  35 C       4.0316268    4.3466617    3.1364701    3.6637033    3.6452352  
  36 C       2.2237449 *  1.3571769 *  2.4227334 *  1.4024057 *  3.8371883  
  37 C       4.4185049    4.0247643    1.4106331 *  2.4108266 *  4.8909177  
  38 C       5.3678361    5.1327237    2.2413919 *  3.4648171    5.3308107  
  39 C       5.2310311    5.3421057    3.1650401    4.1237520    4.7310615  
  40 C       5.8429708    6.0021766    3.7966394    4.7475406    4.8847982  

               21 C         22 C         23 C         24 C         25 C     

   1 C       3.6538184    3.1722487    2.1841768 *  2.1642853 *  2.1684143 *
   2 C       3.0369894    2.1385958 *  1.3650424 *  2.1724804 *  3.2442917  
   3 C       2.7310804 *  2.4191247 *  3.4994529    4.3061408    5.5332975  
   4 C       2.3127875 *  1.4004791 *  2.2592304 *  3.2806831    4.7402388  
   5 C       3.1124527    2.2338525 *  2.2751651 *  3.1842988    4.0827946  
   6 C       4.3606011    4.0969216    3.3810462    3.2400506    2.2517571 *
   7 C       5.0895917    5.1678272    5.0201347    4.9318173    3.8106126  
   8 C       4.4853658    4.2242646    3.9229622    4.0712085    3.3919775  
   9 C       3.9169094    3.4288358    3.4932689    4.0613568    4.2043046  
  10 C       4.1521581    3.9129382    4.3904939    4.9491784    5.1661357  
  11 C       3.7893659    3.6067034    4.4700499    5.1583742    5.8704763  
  12 C       5.1174084    5.4770376    4.9617018    4.2678283    2.2283823 *
  13 C       4.6507679    4.7505963    3.9937345    3.3521677    1.3796470 *
  14 C       5.4837542    5.8103133    5.5268685    5.0849754    3.4067832  
  15 C       2.4207743 *  2.7944298 *  4.0031819    4.4982636    5.7375963  
  16 C       3.5051782    4.0143044    5.1084788    5.4692131    6.2722585  
  17 C       4.2941143    4.5017670    5.4583918    5.9400858    6.4833123  
  18 C       5.1674911    5.4055757    5.5944975    5.5963155    4.7941362  
  19 C       4.8025589    4.9205353    5.3867981    5.6651083    5.4345279  
  20 C       1.3687420 *  2.3896671 *  3.4127017    3.5358063    4.7819249  
  21 C       0.0000000    1.4075915 *  2.1871119 *  2.2670075 *  3.9500495  
  22 C       1.4075915 *  0.0000000    1.3291307 *  2.2491657 *  4.2164800  
  23 C       2.1871119 *  1.3291307 *  0.0000000    1.3579595 *  3.3837535  
  24 C       2.2670075 *  2.2491657 *  1.3579595 *  0.0000000    2.3732753 *
  25 C       3.9500495    4.2164800    3.3837535    2.3732753 *  0.0000000  
  26 C       3.3847278    3.2950921    2.2245339 *  1.3657475 *  1.3399424 *
  27 C       3.4201774    4.2845308    5.1753323    5.1932620    5.6094600  
  28 C       2.3774727 *  3.5319028    4.2892348    4.0757957    4.6284506  
  29 C       2.8097872 *  3.9784262    4.3163130    3.7068027    3.6207391  
  30 C       2.4792911 *  3.5044179    3.4356394    2.4994904 *  2.4303509 *
  31 C       1.4154270 *  2.2713507 *  2.1965878 *  1.4095604 *  2.7368755 *
  32 C       3.6777278    4.3864650    3.9278285    2.8420908 *  1.4051737 *
  33 C       4.3758713    5.0978282    5.7953663    5.7629996    5.6636959  
  34 C       4.6430810    5.4487929    5.8688934    5.5670888    4.9426307  
  35 C       4.0907481    5.0796205    5.3197072    4.7254862    3.9665196  
  36 C       4.7738842    5.1337107    5.8699824    6.1239271    6.1537814  
  37 C       5.3927407    5.9586346    6.1612185    5.8860366    4.8432940  
  38 C       5.5604555    6.1600660    6.1029789    5.5863563    4.0773897  
  39 C       4.8785093    5.7025467    5.6345581    4.8944245    3.4557849  
  40 C       4.6478054    5.3417979    4.9810122    4.0702845    2.2496100 *

               26 C         27 C         28 C         29 C         30 C     

   1 C       1.3883096 *  5.6540205    4.9212225    4.4689563    3.5383827  
   2 C       2.2331505 *  5.2814922    4.6407436    4.5842427    3.8423053  
   3 C       4.9958761    3.0443659    3.1760735    4.1433904    4.4790607  
   4 C       3.9641472    3.9471272    3.6443374    4.2704876    4.1432276  
   5 C       3.3596448    4.5545206    4.2598024    4.5007540    4.1948225  
   6 C       2.2861816 *  5.5160696    4.9918045    4.3931048    3.7328606  
   7 C       4.3092638    4.5628166    4.5895297    4.0985550    4.2476743  
   8 C       3.4626115    4.8359541    4.6740035    4.3359739    4.1454558  
   9 C       3.9061027    4.2896033    4.2901261    4.4060633    4.3841833  
  10 C       5.0065900    3.4574364    3.8965639    4.3247044    4.7517449  
  11 C       5.5647592    2.9123800 *  3.5141609    4.3747554    4.9568104  
  12 C       3.3321996    5.3809187    4.8381105    3.7419902    3.3295487  
  13 C       2.2102705 *  5.7025738    5.0090522    4.0546016    3.2548225  
  14 C       4.3063193    4.9889422    4.8061612    3.9304063    3.9856684  
  15 C       5.3557515    2.1440203 *  2.2454579 *  3.5103332    4.1122972  
  16 C       6.1369363    1.3648749 *  2.3020799 *  3.5771493    4.5694366  
  17 C       6.3827400    2.1636892 *  3.2373585    4.2401259    5.1837337  
  18 C       5.2584659    3.7095942    4.1253376    3.9202564    4.5349133  
  19 C       5.6094847    3.1179298    3.8198409    4.0979695    4.8364896  
  20 C       4.4768398    2.2046355 *  1.4058377 *  2.4770416 *  2.8953162 *
  21 C       3.3847278    3.4201774    2.3774727 *  2.8097872 *  2.4792911 *
  22 C       3.2950921    4.2845308    3.5319028    3.9784262    3.5044179  
  23 C       2.2245339 *  5.1753323    4.2892348    4.3163130    3.4356394  
  24 C       1.3657475 *  5.1932620    4.0757957    3.7068027    2.4994904 *
  25 C       1.3399424 *  5.6094600    4.6284506    3.6207391    2.4303509 *
  26 C       0.0000000    5.7364493    4.7263835    4.0540959    2.7961256 *
  27 C       5.7364493    0.0000000    1.3921673 *  2.4749822 *  3.7178203  
  28 C       4.7263835    1.3921673 *  0.0000000    1.4193594 *  2.4879996 *
  29 C       4.0540959    2.4749822 *  1.4193594 *  0.0000000    1.4629941 *
  30 C       2.7961256 *  3.7178203    2.4879996 *  1.4629941 *  0.0000000  
  31 C       2.3562971 *  4.0510005    2.8015470 *  2.4698964 *  1.4431627 *
  32 C       2.4106640 *  4.7632679    3.7269979    2.4911848 *  1.4458975 *
  33 C       6.0048362    1.3790016 *  2.3954320 *  2.8678717 *  4.1445091  
  34 C       5.5617578    2.3506468 *  2.7282851 *  2.4630863 *  3.6503459  
  35 C       4.7137285    2.7882363 *  2.4069132 *  1.4418075 *  2.4872718 *
  36 C       6.3218254    2.1989901 *  3.3098571    3.9334020    4.9918263  
  37 C       5.5712481    3.5416715    3.8832914    3.4173523    4.2486257  
  38 C       5.0459633    4.3771922    4.3220342    3.4293449    3.9052937  
  39 C       4.4979815    4.0804776    3.6540057    2.4675688 *  2.8559798 *
  40 C       3.4493047    4.8208469    4.0932181    2.7870397 *  2.4288942 *

               31 C         32 C         33 C         34 C         35 C     

   1 C       3.0724909    3.2161064    5.7694315    5.4565129    4.9405028  
   2 C       2.9881092 *  4.0033602    5.6016989    5.6115320    5.2660142  
   3 C       3.8647662    5.4115505    3.7041284    4.5467914    4.8370678  
   4 C       3.2453683    4.9159854    4.5567416    5.0905809    5.0884050  
   5 C       3.5077437    4.5472143    4.7922123    5.0437941    5.0429828  
   6 C       3.7603556    3.1193343    5.3013686    4.8045296    4.4486566  
   7 C       4.7906949    3.8347661    3.7915849    3.1940111    3.4748656  
   8 C       4.2580836    3.8277522    4.4175296    4.0974989    4.1782334  
   9 C       4.1577705    4.5270842    4.1096568    4.2538622    4.5285367  
  10 C       4.6743344    5.1432776    3.1591037    3.6559919    4.3186000  
  11 C       4.6897018    5.6957467    3.0665755    3.9876180    4.6531077  
  12 C       4.2024274    2.2128987 *  4.8904727    3.8578662    3.2267177  
  13 C       3.6912669    2.1830691 *  5.4503778    4.6543839    3.9820458  
  14 C       4.8645078    3.2270097    4.2008203    3.1825386    3.0716858  
  15 C       3.6516418    5.2961637    3.2249611    4.1676213    4.3588638  
  16 C       4.5063907    5.6574088    2.2518045 *  3.4625187    4.0316268  
  17 C       5.1835253    6.0230056    2.2220766 *  3.4418517    4.3466617  
  18 C       5.1454736    4.4786112    2.6843117 *  2.3065490 *  3.1364701  
  19 C       5.1574163    5.1376165    2.2864420 *  2.6603407 *  3.6637033  
  20 C       2.4467759 *  4.2128265    3.3657987    3.9157539    3.6452352  
  21 C       1.4154270 *  3.6777278    4.3758713    4.6430810    4.0907481  
  22 C       2.2713507 *  4.3864650    5.0978282    5.4487929    5.0796205  
  23 C       2.1965878 *  3.9278285    5.7953663    5.8688934    5.3197072  
  24 C       1.4095604 *  2.8420908 *  5.7629996    5.5670888    4.7254862  
  25 C       2.7368755 *  1.4051737 *  5.6636959    4.9426307    3.9665196  
  26 C       2.3562971 *  2.4106640 *  6.0048362    5.5617578    4.7137285  
  27 C       4.0510005    4.7632679    1.3790016 *  2.3506468 *  2.7882363 *
  28 C       2.8015470 *  3.7269979    2.3954320 *  2.7282851 *  2.4069132 *
  29 C       2.4698964 *  2.4911848 *  2.8678717 *  2.4630863 *  1.4418075 *
  30 C       1.4431627 *  1.4458975 *  4.1445091    3.6503459    2.4872718 *
  31 C       0.0000000    2.4547428 *  4.7522282    4.6023810    3.6959785  
  32 C       2.4547428 *  0.0000000    4.8333580    4.0077553    2.8106578 *
  33 C       4.7522282    4.8333580    0.0000000    1.3648284 *  2.4536535 *
  34 C       4.6023810    4.0077553    1.3648284 *  0.0000000    1.4272705 *
  35 C       3.6959785    2.8106578 *  2.4536535 *  1.4272705 *  0.0000000  
  36 C       5.3388924    5.5972494    1.3966635 *  2.4184951 *  3.5953462  
  37 C       5.1984994    4.1666338    2.3912251 *  1.3967164 *  2.2341119 *
  38 C       5.0232429    3.4112106    3.4606472    2.2168393 *  2.2043194 *
  39 C       4.1646473    2.4246045 *  3.5330889    2.2671375 *  1.3823610 *
  40 C       3.6338447    1.3818820 *  4.5058122    3.3985050    2.3448197 *

               36 C         37 C         38 C         39 C         40 C     

   1 C       5.7837644    5.2622265    4.9219385    4.7376819    3.8835913  
   2 C       5.4541728    5.6127202    5.5697727    5.3936669    4.7626112  
   3 C       3.2665848    5.0844182    5.7897681    5.7111723    5.8725071  
   4 C       4.2415125    5.4607393    5.8917708    5.7325878    5.5760317  
   5 C       4.3844154    5.0506005    5.3207621    5.3585298    5.0540797  
   6 C       5.2736770    4.3088950    3.8918924    4.0051167    3.2685432  
   7 C       3.6465175    2.2420415 *  2.2363839 *  3.0724173    3.1981081  
   8 C       4.1222190    3.4798714    3.4666100    3.9375117    3.6788380  
   9 C       3.5403685    3.9742639    4.3556873    4.7148639    4.6272322  
  10 C       2.2795874 *  3.5490581    4.3411685    4.7942638    5.0877559  
  11 C       2.1942390 *  4.3200826    5.2333319    5.4564671    5.8319852  
  12 C       5.3327916    3.2417235    2.2031536 *  2.1775167 *  1.3816899 *
  13 C       5.7440932    4.1819660    3.3803522    3.2317216    2.1931390 *
  14 C       4.4693733    2.1891502 *  1.3517295 *  2.1571895 *  2.2066278 *
  15 C       3.2328491    5.0564062    5.7795453    5.4742137    5.7853810  
  16 C       2.2237449 *  4.4185049    5.3678361    5.2310311    5.8429708  
  17 C       1.3571769 *  4.0247643    5.1327237    5.3421057    6.0021766  
  18 C       2.4227334 *  1.4106331 *  2.2413919 *  3.1650401    3.7966394  
  19 C       1.4024057 *  2.4108266 *  3.4648171    4.1237520    4.7475406  
  20 C       3.8371883    4.8909177    5.3308107    4.7310615    4.8847982  
  21 C       4.7738842    5.3927407    5.5604555    4.8785093    4.6478054  
  22 C       5.1337107    5.9586346    6.1600660    5.7025467    5.3417979  
  23 C       5.8699824    6.1612185    6.1029789    5.6345581    4.9810122  
  24 C       6.1239271    5.8860366    5.5863563    4.8944245    4.0702845  
  25 C       6.1537814    4.8432940    4.0773897    3.4557849    2.2496100 *
  26 C       6.3218254    5.5712481    5.0459633    4.4979815    3.4493047  
  27 C       2.1989901 *  3.5416715    4.3771922    4.0804776    4.8208469  
  28 C       3.3098571    3.8832914    4.3220342    3.6540057    4.0932181  
  29 C       3.9334020    3.4173523    3.4293449    2.4675688 *  2.7870397 *
  30 C       4.9918263    4.2486257    3.9052937    2.8559798 *  2.4288942 *
  31 C       5.3388924    5.1984994    5.0232429    4.1646473    3.6338447  
  32 C       5.5972494    4.1666338    3.4112106    2.4246045 *  1.3818820 *
  33 C       1.3966635 *  2.3912251 *  3.4606472    3.5330889    4.5058122  
  34 C       2.4184951 *  1.3967164 *  2.2168393 *  2.2671375 *  3.3985050  
  35 C       3.5953462    2.2341119 *  2.2043194 *  1.3823610 *  2.3448197 *
  36 C       0.0000000    2.8128416 *  4.0353716    4.4452598    5.2823042  
  37 C       2.8128416 *  0.0000000    1.3312183 *  2.2190837 *  3.2482107  
  38 C       4.0353716    1.3312183 *  0.0000000    1.3663963 *  2.2261973 *
  39 C       4.4452598    2.2190837 *  1.3663963 *  0.0000000    1.3465673 *
  40 C       5.2823042    3.2482107    2.2261973 *  1.3465673 *  0.0000000  

  * ... LESS THAN  3.000


 TOTAL NUMBER OF BASIS SET SHELLS             =   40
 NUMBER OF CARTESIAN GAUSSIAN BASIS FUNCTIONS =  160
 NUMBER OF ELECTRONS                          =  160
 CHARGE OF MOLECULE                           =    0
 SPIN MULTIPLICITY                            =    1
 NUMBER OF OCCUPIED ORBITALS (ALPHA)          =   80
 NUMBER OF OCCUPIED ORBITALS (BETA )          =   80
 TOTAL NUMBER OF ATOMS                        =   40
 THE NUCLEAR REPULSION ENERGY IS     4524.6340127433

 THE PARAMETERS USED IN THIS CALCULATION ARE DESCRIBED IN:

  C: (PM3): J. J. P. STEWART, J. COMP. CHEM. 10, 209 (1989).                    

 THERE ARE   40 HEAVY AND    0 LIGHT ATOMS,
 YIELDING A TOTAL OF     78000 MOPAC 2E- INTEGRALS.

     $CONTRL OPTIONS
     ---------------
 SCFTYP=RHF          RUNTYP=OPTIMIZE     EXETYP=RUN     
 MPLEVL=       0     CITYP =NONE         CCTYP =NONE         VBTYP =NONE    
 DFTTYP=NONE         TDDFT =NONE    
 MULT  =       1     ICHARG=       0     NZVAR =       0     COORD =UNIQUE  
 PP    =NONE         RELWFN=NONE         LOCAL =NONE         NUMGRD=       F
 ISPHER=      -1     NOSYM =       0     MAXIT =     200     UNITS =ANGS    
 PLTORB=       F     MOLPLT=       F     AIMPAC=       F     FRIEND=        
 NPRINT=       7     IREST =       0     GEOM  =INPUT   
 NORMF =       0     NORMP =       0     ITOL  =      20     ICUT  =       9
 INTTYP=BEST         GRDTYP=BEST         QMTTOL= 1.0E-06

     $SYSTEM OPTIONS
     ---------------
  REPLICATED MEMORY=    10000000 WORDS (ON EVERY NODE).
 DISTRIBUTED MEMDDI=           0 MILLION WORDS IN AGGREGATE,
 MEMDDI DISTRIBUTED OVER   2 PROCESSORS IS           0 WORDS/PROCESSOR.
 TOTAL MEMORY REQUESTED ON EACH PROCESSOR=    10000000 WORDS.
 TIMLIM=      525600.00 MINUTES, OR     365.0 DAYS.
 PARALL= T  BALTYP=  DLB     KDIAG=    0  COREFL= F
 MXSEQ2=     300 MXSEQ3=     150  mem10=         0  mem22=         0

          ----------------
          PROPERTIES INPUT
          ----------------

     MOMENTS            FIELD           POTENTIAL          DENSITY
 IEMOM =       1   IEFLD =       0   IEPOT =       0   IEDEN =       0
 WHERE =COMASS     WHERE =NUCLEI     WHERE =NUCLEI     WHERE =NUCLEI  
 OUTPUT=BOTH       OUTPUT=BOTH       OUTPUT=BOTH       OUTPUT=BOTH    
 IEMINT=       0   IEFINT=       0                     IEDINT=       0
                                                       MORB  =       0
          EXTRAPOLATION IN EFFECT
          SOSCF IN EFFECT
 ORBITAL PRINTING OPTION: NPREO=     1   160     2     1

     -------------------------------
     INTEGRAL TRANSFORMATION OPTIONS
     -------------------------------
     NWORD  =            0
     CUTTRF = 1.0E-09     MPTRAN =       0
     DIRTRF =       T     AOINTS =DUP     

          ----------------------
          INTEGRAL INPUT OPTIONS
          ----------------------
 NOPK  =       1 NORDER=       0 SCHWRZ=       T

     ------------------------------------------
     THE POINT GROUP IS C1 , NAXIS= 0, ORDER= 1
     ------------------------------------------

     DIMENSIONS OF THE SYMMETRY SUBSPACES ARE
 A   =  160

 ..... DONE SETTING UP THE RUN .....
 CPU     0: STEP CPU TIME=     0.00 TOTAL CPU TIME=          0.0 (      0.0 MIN)
 TOTAL WALL CLOCK TIME=          0.0 SECONDS, CPU UTILIZATION IS     0.00%


          -----------------------------
          STATIONARY POINT LOCATION RUN
          -----------------------------

 OBTAINING INITIAL HESSIAN, HESS=GUESS   
 CARTESIAN COORDINATE OPTIMIZATION USING BADGER'S RULE FORCE CONSTANT GUESS

          PARAMETERS CONTROLLING GEOMETRY SEARCH ARE
          METHOD =QA                  UPHESS =BFGS    
          NNEG   =         0          NFRZ   =         0
          NSTEP  =       100          IFOLOW =         1
          HESS   =GUESS               RESTAR =         F
          IHREP  =         0          HSSEND =         F
          NPRT   =         0          NPUN   =         0
          OPTTOL = 1.000E-03          RMIN   = 1.500E-03
          RMAX   = 1.000E-01          RLIM   = 7.000E-02
          DXMAX  = 3.000E-01          PURIFY =         F
          MOVIE  =         F          TRUPD  =         T
          TRMAX  = 5.000E-01          TRMIN  = 5.000E-02
          ITBMAT =         5          STPT   =         F
          STSTEP = 1.000E-02          PROJCT=          T

 BEGINNING GEOMETRY SEARCH POINT NSERCH=   0 ...

 COORDINATES OF ALL ATOMS ARE (ANGS)
   ATOM   CHARGE       X              Y              Z
 ------------------------------------------------------------
 C           6.0   2.1912000000  -1.5983000000  -1.0316000000
 C           6.0   1.1196000000  -2.3974000000  -1.1490000000
 C           6.0  -2.2281000000  -1.7576000000  -0.5922000000
 C           6.0  -1.0576000000  -2.4381000000  -0.7684000000
 C           6.0  -0.0666000000  -1.9108000000  -1.6401000000
 C           6.0   2.1996000000  -0.3121000000  -1.5079000000
 C           6.0   0.7984000000   1.6415000000  -1.7352000000
 C           6.0   1.0052000000   0.2611000000  -2.0618000000
 C           6.0  -0.1835000000  -0.5739000000  -2.1413000000
 C           6.0  -1.4628000000   0.0134000000  -1.9623000000
 C           6.0  -2.5327000000  -0.6275000000  -1.3379000000
 C           6.0   2.6063000000   1.6219000000  -0.2196000000
 C           6.0   2.9342000000   0.3719000000  -0.5398000000
 C           6.0   1.6787000000   2.3480000000  -0.8948000000
 C           6.0  -2.6383000000  -1.4304000000   0.6999000000
 C           6.0  -3.2620000000  -0.2319000000   0.5914000000
 C           6.0  -3.3169000000   0.2643000000  -0.6629000000
 C           6.0  -0.4921000000   2.1372000000  -1.4640000000
 C           6.0  -1.6248000000   1.3739000000  -1.6169000000
 C           6.0  -1.5694000000  -1.3712000000   1.5927000000
 C           6.0  -0.4445000000  -2.1361000000   1.4411000000
 C           6.0  -0.3369000000  -2.9667000000   0.3098000000
 C           6.0   0.9614000000  -3.0521000000   0.0383000000
 C           6.0   1.7487000000  -2.3976000000   0.9304000000
 C           6.0   3.0076000000  -0.4145000000   0.5914000000
 C           6.0   2.6938000000  -1.6744000000   0.2603000000
 C           6.0  -2.4605000000   0.6227000000   1.2915000000
 C           6.0  -1.4041000000  -0.0174000000   1.9337000000
 C           6.0  -0.1261000000   0.5737000000   2.1123000000
 C           6.0   1.0685000000  -0.2685000000   2.0492000000
 C           6.0   0.8560000000  -1.6609000000   1.7349000000
 C           6.0   2.2867000000   0.3247000000   1.5445000000
 C           6.0  -2.2202000000   1.7641000000   0.5559000000
 C           6.0  -1.0395000000   2.4179000000   0.7590000000
 C           6.0  -0.0201000000   1.9282000000   1.6297000000
 C           6.0  -2.7006000000   1.4720000000  -0.7226000000
 C           6.0  -0.3454000000   2.9579000000  -0.3261000000
 C           6.0   0.9431000000   3.0507000000  -0.0047000000
 C           6.0   1.1836000000   2.4565000000   1.2020000000
 C           6.0   2.2490000000   1.6376000000   1.1150000000

          ********************
          1 ELECTRON INTEGRALS
          ********************

          **************************
          1 AND 2 ELECTRON INTEGRALS
          **************************

 MOPAC ONE- AND TWO-ELECTRON INTEGRALS REQUIRE    103760 WORDS.
 ...... END OF ONE- AND TWO-ELECTRON INTEGRALS......
 CPU     0: STEP CPU TIME=     0.00 TOTAL CPU TIME=          0.0 (      0.0 MIN)
 TOTAL WALL CLOCK TIME=          0.0 SECONDS, CPU UTILIZATION IS     0.00%
 ...... END OF ONE-ELECTRON INTEGRALS ......
 CPU     0: STEP CPU TIME=     0.00 TOTAL CPU TIME=          0.0 (      0.0 MIN)
 TOTAL WALL CLOCK TIME=          0.0 SECONDS, CPU UTILIZATION IS     0.00%

          -------------
          GUESS OPTIONS
          -------------
          GUESS =HUCKEL            NORB  =       0          NORDER=       0
          MIX   =       F          PRTMO =       F          PUNMO =       F
          TOLZ  = 1.0E-08          TOLE  = 1.0E-05
          SYMDEN=       F          PURIFY=       F

 INITIAL GUESS ORBITALS GENERATED BY HUCKEL   ROUTINE.

 SYMMETRIES FOR INITIAL GUESS ORBITALS FOLLOW.   BOTH SET(S).
    80 ORBITALS ARE OCCUPIED (    0 CORE ORBITALS).
     1=A        2=A        3=A        4=A        5=A        6=A        7=A   
     8=A        9=A       10=A       11=A       12=A       13=A       14=A   
    15=A       16=A       17=A       18=A       19=A       20=A       21=A   
    22=A       23=A       24=A       25=A       26=A       27=A       28=A   
    29=A       30=A       31=A       32=A       33=A       34=A       35=A   
    36=A       37=A       38=A       39=A       40=A       41=A       42=A   
    43=A       44=A       45=A       46=A       47=A       48=A       49=A   
    50=A       51=A       52=A       53=A       54=A       55=A       56=A   
    57=A       58=A       59=A       60=A       61=A       62=A       63=A   
    64=A       65=A       66=A       67=A       68=A       69=A       70=A   
    71=A       72=A       73=A       74=A       75=A       76=A       77=A   
    78=A       79=A       80=A       81=A       82=A       83=A       84=A   
    85=A       86=A       87=A       88=A       89=A       90=A   
 ...... END OF INITIAL ORBITAL SELECTION ......
 CPU     0: STEP CPU TIME=     0.02 TOTAL CPU TIME=          0.0 (      0.0 MIN)
 TOTAL WALL CLOCK TIME=          0.0 SECONDS, CPU UTILIZATION IS    50.40%

          --------------------------
               R-PM3 SCF CALCULATION
          --------------------------

     NUCLEAR ENERGY =      1815.9026768067
     MAXIT =  200     NPUNCH=    2
     EXTRAP=T  DAMP=F  SHIFT=F  RSTRCT=F  DIIS=F  DEM=F  SOSCF=T
     DENSITY MATRIX CONV=  2.00E-05
     SOSCF WILL OPTIMIZE    6400 ORBITAL ROTATIONS, SOGTOL=   0.250
     MEMORY REQUIRED FOR RHF ITERS=    285680 WORDS.

                                                                                   NONZERO     BLOCKS
 ITER EX DEM     TOTAL ENERGY        E CHANGE  DENSITY CHANGE     ORB. GRAD      INTEGRALS    SKIPPED
   1  0  0     -171.1924108239  -171.1924108239   0.168849649   0.000000000              0          0
          ---------------START SECOND ORDER SCF---------------
   2  1  0     -172.3850461311    -1.1926353072   0.050736823   0.020272337              0          0
   3  2  0     -172.4813604948    -0.0963143637   0.038805086   0.013103353              0          0
   4  3  0     -172.4918808711    -0.0105203763   0.018851265   0.013274922              0          0
   5  4  0     -172.5005511260    -0.0086702548   0.009919574   0.003332064              0          0
   6  5  0     -172.5017908201    -0.0012396942   0.048249754   0.002622479              0          0
   7  6  0     -172.5048975868    -0.0031067667   0.016112779   0.002312555              0          0
   8  7  0     -172.5057323632    -0.0008347764   0.030836120   0.001611783              0          0
   9  8  0     -172.5068447038    -0.0011123406   0.007598574   0.001683291              0          0
  10  9  0     -172.5071655568    -0.0003208530   0.008187632   0.000852532              0          0
  11 10  0     -172.5073725515    -0.0002069947   0.005581486   0.000515544              0          0
  12 11  0     -172.5074792350    -0.0001066835   0.004317608   0.000370081              0          0
  13 12  0     -172.5075228122    -0.0000435772   0.004006440   0.000306020              0          0
  14 13  0     -172.5075476308    -0.0000248186   0.002601252   0.000185327              0          0
  15 14  0     -172.5075592097    -0.0000115789   0.001580657   0.000142521              0          0
  16 15  0     -172.5075648345    -0.0000056248   0.000905944   0.000078470              0          0
  17 16  0     -172.5075666676    -0.0000018332   0.000370733   0.000050696              0          0
  18 17  0     -172.5075672190    -0.0000005513   0.000237914   0.000025770              0          0
  19 18  0     -172.5075673899    -0.0000001709   0.000127654   0.000012079              0          0
  20 19  0     -172.5075674541    -0.0000000642   0.000112560   0.000010255              0          0
  21 20  0     -172.5075674807    -0.0000000265   0.000075071   0.000006301              0          0
  22 21  0     -172.5075674928    -0.0000000121   0.000040376   0.000003167              0          0
  23 22  0     -172.5075674976    -0.0000000049   0.000016854   0.000002406              0          0
  24 23  0     -172.5075674990    -0.0000000014   0.000008453   0.000001125              0          0

          -----------------
          DENSITY CONVERGED
          -----------------
     TIME TO FORM FOCK OPERATORS=       0.0 SECONDS (       0.0 SEC/ITER)
     FOCK TIME ON FIRST ITERATION=       0.0, LAST ITERATION=       0.0
     TIME TO SOLVE SCF EQUATIONS=       0.1 SECONDS (       0.0 SEC/ITER)

 FINAL R-PM3 ENERGY IS     -172.5075674990 AFTER  24 ITERATIONS

 HEAT OF FORMATION IS      1185.21135 KCAL/MOL
 

          ------------
          EIGENVECTORS
          ------------

                      1          2          3          4          5
                   -1.9423    -1.8034    -1.7767    -1.5731    -1.5433
                     A          A          A          A          A   
    1  C  1  S    0.163694  -0.185573  -0.162777  -0.132766   0.112938
    2  C  1  X   -0.024265   0.011038   0.039767   0.033065   0.047590
    3  C  1  Y    0.013292  -0.023887   0.024017  -0.019904   0.077915
    4  C  1  Z    0.032348  -0.042080  -0.038662   0.013865   0.027255
    5  C  2  S    0.162834  -0.121984  -0.231247  -0.134254  -0.118882
    6  C  2  X   -0.008748  -0.021154   0.018722   0.009610   0.065113
    7  C  2  Y    0.023941  -0.022446  -0.015881  -0.040299   0.024325
    8  C  2  Z    0.037320  -0.032635  -0.063044   0.010346  -0.036790
    9  C  3  S    0.159961   0.176975  -0.106294  -0.027580   0.011950
   10  C  3  X    0.016315  -0.011503  -0.030976  -0.013541  -0.051109
   11  C  3  Y    0.034657   0.060423   0.002274  -0.017060   0.049941
   12  C  3  Z    0.017653   0.023550  -0.014040   0.054424   0.004798
   13  C  4  S    0.150201   0.042790  -0.185305  -0.059569  -0.167127
   14  C  4  X    0.017897  -0.037843  -0.044503  -0.019950  -0.060668
   15  C  4  Y    0.026179   0.025029  -0.014265  -0.023576   0.003489
   16  C  4  Z    0.018597   0.006188  -0.028406   0.043133  -0.027883
   17  C  5  S    0.142807  -0.025067  -0.167330  -0.180545  -0.135037
   18  C  5  X    0.005768  -0.037238  -0.015679  -0.011377   0.001611
   19  C  5  Y    0.007700   0.007278   0.017015  -0.041620   0.027765
   20  C  5  Z    0.034069  -0.009102  -0.053781  -0.005555  -0.049702
   21  C  6  S    0.143868  -0.167090  -0.031951  -0.159526   0.186881
   22  C  6  X   -0.012982  -0.000771   0.004667   0.041226   0.030471
   23  C  6  Y   -0.002923   0.004147   0.045734   0.006836   0.004200
   24  C  6  Z    0.035539  -0.051224  -0.009908  -0.003427   0.073066
   25  C  7  S    0.141109  -0.069531   0.163224  -0.187568  -0.089160
   26  C  7  X   -0.005202  -0.027592  -0.007188   0.029154   0.040659
   27  C  7  Y   -0.002355   0.002238   0.029788   0.032674  -0.042794
   28  C  7  Z    0.033842  -0.022869   0.052823  -0.008699  -0.029854
   29  C  8  S    0.123416  -0.075154   0.025719  -0.229186   0.025135
   30  C  8  X   -0.002895  -0.027624  -0.001893   0.030001   0.039977
   31  C  8  Y   -0.000625   0.002869   0.042471   0.008609  -0.013895
   32  C  8  Z    0.026946  -0.023900   0.008186  -0.028917   0.015153
   33  C  9  S    0.123687   0.009983  -0.044345  -0.255305  -0.038558
   34  C  9  X   -0.001608  -0.038051  -0.003559   0.001321   0.004398
   35  C  9  Y    0.001412   0.005814   0.036183  -0.019781   0.013666
   36  C  9  Z    0.025887   0.002377  -0.015221  -0.035866  -0.009990
   37  C 10  S    0.145065   0.136580   0.005397  -0.258483   0.018710
   38  C 10  X   -0.004392  -0.039001  -0.000658  -0.020433  -0.035984
   39  C 10  Y    0.003790   0.006927   0.032136  -0.014927   0.002108
   40  C 10  Z    0.034432   0.043093   0.000692  -0.032984   0.015434
   41  C 11  S    0.167479   0.227998  -0.032947  -0.148817   0.107316
   42  C 11  X    0.017983   0.005397  -0.009572  -0.042684  -0.021424
   43  C 11  Y    0.018855   0.034519   0.023647  -0.039098   0.031206
   44  C 11  Z    0.039153   0.062490  -0.011510   0.017141   0.038955
   45  C 12  S    0.161655  -0.191800   0.170411   0.019331   0.150602
   46  C 12  X   -0.038173   0.033102  -0.057488  -0.000345   0.022084
   47  C 12  Y   -0.019298   0.034773   0.017183   0.004707  -0.093704
   48  C 12  Z    0.013069  -0.018161   0.015898   0.046637   0.020915
   49  C 13  S    0.157402  -0.211956   0.040778  -0.039389   0.297534
   50  C 13  X   -0.036768   0.043153  -0.013606   0.019079  -0.042774
   51  C 13  Y   -0.006500   0.012758   0.048359   0.018839  -0.034323
   52  C 13  Z    0.020509  -0.031759   0.010354   0.040604   0.053917
   53  C 14  S    0.157726  -0.132930   0.231145  -0.055046  -0.075909
   54  C 14  X   -0.023893  -0.001330  -0.045966   0.027358   0.074927
   55  C 14  Y   -0.024412   0.028638  -0.015558   0.020533  -0.038272
   56  C 14  Z    0.031539  -0.032497   0.053541   0.036032  -0.011047
   57  C 15  S    0.165595   0.217174  -0.081749   0.125188   0.075419
   58  C 15  X    0.027929   0.017159  -0.027405   0.036474  -0.025548
   59  C 15  Y    0.037485   0.065486   0.003736   0.028567   0.053943
   60  C 15  Z   -0.019790  -0.030617   0.009620   0.041185  -0.017053
   61  C 16  S    0.175077   0.271896  -0.019408   0.079173   0.171485
   62  C 16  X    0.052459   0.074234  -0.008237   0.039305   0.035779
   63  C 16  Y    0.005898   0.012231   0.021447  -0.013258   0.013079
   64  C 16  Z   -0.022706  -0.039986  -0.000045   0.046584  -0.032201
   65  C 17  S    0.170602   0.267694   0.009093  -0.079026   0.173521
   66  C 17  X    0.053755   0.077934   0.005254  -0.037603   0.040719
   67  C 17  Y   -0.006337  -0.011471   0.020709  -0.011648  -0.011380
   68  C 17  Z    0.022337   0.038804  -0.001176   0.042083   0.029852
   69  C 18  S    0.146516   0.019789   0.181958  -0.186234  -0.162620
   70  C 18  X    0.008427  -0.039694   0.028840  -0.000099  -0.031308
   71  C 18  Y   -0.015836  -0.014266   0.002465   0.048025  -0.014797
   72  C 18  Z    0.029837   0.001284   0.048033   0.003216  -0.046364
   73  C 19  S    0.150654   0.141509   0.093116  -0.229426  -0.015381
   74  C 19  X    0.003738  -0.031158   0.020240  -0.024670  -0.048001
   75  C 19  Y   -0.018433  -0.032481   0.016661   0.040058  -0.034755
   76  C 19  Z    0.031938   0.036326   0.023731  -0.012323   0.000292
   77  C 20  S    0.152110   0.131322  -0.101067   0.236975  -0.028545
   78  C 20  X    0.004366  -0.032167  -0.019087   0.023420  -0.045872
   79  C 20  Y    0.018264   0.033242   0.015674   0.042288   0.034433
   80  C 20  Z   -0.032242  -0.034165   0.025754  -0.014007   0.002964
   81  C 21  S    0.149882   0.005111  -0.185195   0.186392  -0.167155
   82  C 21  X    0.008647  -0.041768  -0.026396  -0.002885  -0.025849
   83  C 21  Y    0.014909   0.014222   0.003300   0.047764   0.015815
   84  C 21  Z   -0.030541   0.001890   0.048423   0.003728   0.047812
   85  C 22  S    0.155712  -0.028602  -0.238524   0.043053  -0.242956
   86  C 22  X    0.020142  -0.038589  -0.044143  -0.005065  -0.040473
   87  C 22  Y    0.041611   0.000145  -0.055157   0.018950  -0.048585
   88  C 22  Z   -0.008795   0.002784   0.015771   0.048188   0.017820
   89  C 23  S    0.164205  -0.112826  -0.264791  -0.011515  -0.200871
   90  C 23  X   -0.011035  -0.017413   0.022446  -0.008726   0.064211
   91  C 23  Y    0.051349  -0.039333  -0.075698  -0.005608  -0.038853
   92  C 23  Z   -0.000230   0.000704  -0.000194   0.045676  -0.003600
   93  C 24  S    0.156670  -0.145740  -0.217148   0.052959  -0.058997
   94  C 24  X   -0.025047   0.003312   0.047000  -0.026305   0.073602
   95  C 24  Y    0.026514  -0.031684  -0.017583   0.018467   0.038130
   96  C 24  Z   -0.031936   0.034843   0.050163   0.032117   0.008827
   97  C 25  S    0.153101  -0.209283  -0.028234   0.036813   0.297514
   98  C 25  X   -0.038781   0.047537   0.010967  -0.016826  -0.051445
   99  C 25  Y    0.005810  -0.009977   0.046943   0.018301   0.032353
  100  C 25  Z   -0.020488   0.031442   0.008541   0.037269  -0.051262
  101  C 26  S    0.157627  -0.195482  -0.151849  -0.016923   0.158396
  102  C 26  X   -0.041309   0.040669   0.056791   0.001623   0.012842
  103  C 26  Y    0.020791  -0.035582   0.015222   0.001994   0.091850
  104  C 26  Z   -0.011684   0.016270   0.012389   0.041155  -0.017336
  105  C 27  S    0.169498   0.228439   0.024448   0.156794   0.101238
  106  C 27  X    0.015905   0.001604   0.009173   0.043375  -0.024488
  107  C 27  Y   -0.018056  -0.031225   0.026727  -0.040934  -0.027099
  108  C 27  Z   -0.038957  -0.062863  -0.009148   0.017434  -0.039368
  109  C 28  S    0.144899   0.130696  -0.011414   0.264494   0.010996
  110  C 28  X   -0.004451  -0.038886   0.002766   0.017771  -0.032726
  111  C 28  Y   -0.004566  -0.005555   0.033282  -0.016370  -0.000060
  112  C 28  Z   -0.034344  -0.042018   0.002807  -0.035207  -0.013191
  113  C 29  S    0.122469   0.006750   0.046818   0.251402  -0.034629
  114  C 29  X   -0.001856  -0.037926   0.005942  -0.004591   0.008095
  115  C 29  Y   -0.001625  -0.004172   0.037241  -0.019490  -0.013781
  116  C 29  Z   -0.024875  -0.002417  -0.015231  -0.033973   0.009298
  117  C 30  S    0.122791  -0.082005  -0.019056   0.219092   0.039103
  118  C 30  X   -0.002101  -0.027729   0.003907  -0.029733   0.043224
  119  C 30  Y    0.000180  -0.000959   0.043057   0.008825   0.014170
  120  C 30  Z   -0.026388   0.024620   0.006304  -0.026003  -0.017640
  121  C 31  S    0.142417  -0.083574  -0.159044   0.179590  -0.078330
  122  C 31  X   -0.004711  -0.027074   0.008415  -0.029651   0.044071
  123  C 31  Y    0.001303  -0.000204   0.030602   0.030625   0.043545
  124  C 31  Z   -0.034868   0.026661   0.051817  -0.008435   0.027847
  125  C 32  S    0.140412  -0.166358   0.045428   0.150238   0.197756
  126  C 32  X   -0.013871   0.002068  -0.005826  -0.039520   0.024367
  127  C 32  Y    0.002018  -0.001055   0.044783   0.007422  -0.008077
  128  C 32  Z   -0.035509   0.050664  -0.013536  -0.004039  -0.073321
  129  C 33  S    0.159194   0.182110   0.099632   0.029483   0.016696
  130  C 33  X    0.015644  -0.010553   0.031442   0.014416  -0.050668
  131  C 33  Y   -0.034686  -0.059982   0.004746  -0.018702  -0.049407
  132  C 33  Z   -0.017475  -0.024701  -0.012711   0.053803  -0.007201
  133  C 34  S    0.148905   0.051011   0.185731   0.061853  -0.163093
  134  C 34  X    0.016893  -0.036659   0.046522   0.019115  -0.060730
  135  C 34  Y   -0.024514  -0.025276  -0.010903  -0.023961  -0.006694
  136  C 34  Z   -0.019164  -0.008413  -0.029218   0.042593   0.028329
  137  C 35  S    0.140211  -0.022451   0.173361   0.177565  -0.131649
  138  C 35  X    0.006268  -0.036754   0.019101   0.010868   0.002441
  139  C 35  Y   -0.007194  -0.006474   0.017564  -0.039524  -0.028355
  140  C 35  Z   -0.033059   0.006973  -0.054245  -0.005606   0.048850
  141  C 36  S    0.161491   0.219858   0.070678  -0.116523   0.086136
  142  C 36  X    0.028704   0.021514   0.026578  -0.034053  -0.021197
  143  C 36  Y   -0.038657  -0.066953   0.004956   0.027148  -0.055294
  144  C 36  Z    0.018453   0.028703   0.007932   0.039470   0.015370
  145  C 37  S    0.152851  -0.014839   0.240188  -0.043231  -0.240689
  146  C 37  X    0.018914  -0.036100   0.045260   0.004849  -0.041944
  147  C 37  Y   -0.040640  -0.003449  -0.054656   0.019256   0.047093
  148  C 37  Z    0.009229  -0.002892   0.017643   0.048352  -0.018516
  149  C 38  S    0.160689  -0.097570   0.271981   0.016655  -0.206376
  150  C 38  X   -0.010184  -0.018706  -0.019974   0.009476   0.060220
  151  C 38  Y   -0.050243   0.034844  -0.078262  -0.006384   0.041104
  152  C 38  Z    0.000063  -0.001746  -0.000135   0.046706   0.006443
  153  C 39  S    0.154663  -0.110806   0.234711   0.133201  -0.113053
  154  C 39  X   -0.009427  -0.018755  -0.019278  -0.009768   0.062260
  155  C 39  Y   -0.026115   0.024115  -0.023402  -0.039749  -0.021022
  156  C 39  Z   -0.036739   0.029280  -0.064890   0.005672   0.038050
  157  C 40  S    0.155708  -0.172231   0.172074   0.132351   0.108382
  158  C 40  X   -0.025603   0.012948  -0.042681  -0.033236   0.041704
  159  C 40  Y   -0.014906   0.026529   0.018073  -0.018494  -0.078003
  160  C 40  Z   -0.032946   0.040618  -0.042380   0.008200  -0.025074

                      6          7          8          9         10
                   -1.4659    -1.3686    -1.3434    -1.3296    -1.2543
                     A          A          A          A          A   
    1  C  1  S   -0.158678   0.188516  -0.130400   0.099304   0.152335
    2  C  1  X    0.003406  -0.018750   0.021519  -0.052002   0.038326
    3  C  1  Y    0.020199   0.058649   0.048893   0.009746   0.012056
    4  C  1  Z   -0.061466  -0.025226  -0.040699  -0.047144   0.070268
    5  C  2  S   -0.071856   0.072055  -0.179146   0.184912  -0.073479
    6  C  2  X   -0.070701   0.033878  -0.017314  -0.053501   0.099323
    7  C  2  Y   -0.008733   0.053466   0.011431   0.054163   0.030623
    8  C  2  Z   -0.046561  -0.029245  -0.061226  -0.047227  -0.005561
    9  C  3  S    0.287407  -0.070558  -0.059744   0.044813   0.251954
   10  C  3  X    0.039670  -0.008459   0.032668   0.045675  -0.032697
   11  C  3  Y    0.020444  -0.027534  -0.020369  -0.009605   0.071077
   12  C  3  Z    0.030562   0.058045  -0.024693  -0.052853   0.015616
   13  C  4  S    0.236651  -0.066065  -0.039852   0.154329  -0.044103
   14  C  4  X   -0.029919   0.000251  -0.023988   0.038839  -0.118300
   15  C  4  Y    0.049968  -0.009968   0.019332   0.039537   0.052517
   16  C  4  Z    0.024437   0.004116  -0.008430  -0.063748  -0.017290
   17  C  5  S    0.121551   0.021021   0.001356   0.309018  -0.097469
   18  C  5  X   -0.054949   0.054516  -0.034536   0.011809  -0.031581
   19  C  5  Y    0.011307   0.021898   0.073206   0.031115   0.042451
   20  C  5  Z    0.020991  -0.015102  -0.043165   0.022839  -0.041341
   21  C  6  S   -0.003263   0.271831   0.038311   0.063573  -0.001082
   22  C  6  X   -0.014244  -0.039295  -0.037642  -0.030645   0.023512
   23  C  6  Y    0.054943  -0.007109   0.039805  -0.053241  -0.074962
   24  C  6  Z   -0.018165   0.017900  -0.023282  -0.008185   0.025903
   25  C  7  S    0.076544   0.187782   0.154630  -0.224961  -0.026363
   26  C  7  X    0.045038   0.019104  -0.052063   0.010555  -0.052934
   27  C  7  Y   -0.006959  -0.028276  -0.066296  -0.054914   0.041268
   28  C  7  Z    0.020841   0.016618  -0.027052  -0.052806   0.004432
   29  C  8  S    0.069195   0.239651   0.219039   0.036545  -0.068727
   30  C  8  X   -0.001107   0.035023  -0.059674  -0.016439  -0.016963
   31  C  8  Y    0.011794  -0.004888   0.015011  -0.097035  -0.014241
   32  C  8  Z    0.011308   0.041774   0.013321  -0.006584  -0.012032
   33  C  9  S    0.096986   0.051888   0.241018   0.217669  -0.001530
   34  C  9  X   -0.015206   0.089340  -0.015887   0.004378  -0.037569
   35  C  9  Y   -0.019962   0.009100   0.065628  -0.069614   0.005636
   36  C  9  Z    0.019006   0.001515   0.018323   0.037670  -0.002078
   37  C 10  S    0.038264  -0.192440   0.237804   0.071409   0.072833
   38  C 10  X    0.016447   0.076564   0.063921   0.034398  -0.017247
   39  C 10  Y   -0.069000  -0.010324   0.030716  -0.070196  -0.044126
   40  C 10  Z    0.001424  -0.048719   0.005417  -0.001664   0.016234
   41  C 11  S    0.125147  -0.233746  -0.011267   0.025797   0.201437
   42  C 11  X    0.028499  -0.026553   0.064548   0.045515   0.017876
   43  C 11  Y   -0.075067  -0.060492   0.019516  -0.031744  -0.064298
   44  C 11  Z    0.037736   0.002015  -0.068380  -0.024927   0.049510
   45  C 12  S    0.216718  -0.042065  -0.078840  -0.077293  -0.265417
   46  C 12  X   -0.049922  -0.000970   0.031220   0.027385   0.025554
   47  C 12  Y    0.004775  -0.008638  -0.041734  -0.012293   0.032503
   48  C 12  Z    0.014052  -0.089184  -0.018321   0.048760  -0.009965
   49  C 13  S    0.067363   0.082783   0.001161  -0.028686  -0.105252
   50  C 13  X   -0.020876  -0.036030  -0.007393   0.006058   0.027869
   51  C 13  Y    0.076085  -0.043773  -0.001355  -0.025460  -0.123080
   52  C 13  Z    0.009240  -0.082634  -0.002583   0.003696  -0.012908
   53  C 14  S    0.180547   0.078955  -0.091448  -0.215404  -0.090517
   54  C 14  X    0.017538  -0.035620  -0.006054   0.054842  -0.083199
   55  C 14  Y   -0.034407  -0.029829  -0.028325   0.021077   0.068770
   56  C 14  Z    0.045619  -0.052939  -0.075372   0.018581  -0.018012
   57  C 15  S    0.226831   0.146214  -0.088255  -0.087807   0.197467
   58  C 15  X    0.049721   0.034679   0.038247  -0.011292   0.008264
   59  C 15  Y   -0.003158   0.049933  -0.043574  -0.014961   0.006788
   60  C 15  Z   -0.045522   0.072844   0.045382  -0.011832  -0.076086
   61  C 16  S    0.040304   0.101718  -0.195704  -0.073388   0.013598
   62  C 16  X    0.017193   0.058164  -0.026503  -0.012207   0.003307
   63  C 16  Y   -0.091633  -0.017158  -0.014383   0.013883  -0.129485
   64  C 16  Z   -0.007178   0.092503   0.043086   0.012970  -0.036077
   65  C 17  S   -0.045146  -0.167259  -0.144892  -0.067802  -0.024739
   66  C 17  X   -0.017769  -0.062939  -0.009132  -0.011811  -0.004811
   67  C 17  Y   -0.087919  -0.008326   0.022717   0.000591  -0.126783
   68  C 17  Z   -0.009089   0.064847  -0.070069  -0.010974  -0.038524
   69  C 18  S   -0.098332   0.054280   0.160551  -0.212289   0.069725
   70  C 18  X    0.061878   0.066394  -0.019239  -0.050483   0.035020
   71  C 18  Y    0.003075   0.009976  -0.076669   0.002529   0.029835
   72  C 18  Z   -0.035605   0.007623  -0.036211  -0.012387   0.032854
   73  C 19  S   -0.156465  -0.162944   0.204457  -0.097305  -0.048116
   74  C 19  X    0.015633   0.059770   0.066393  -0.022159   0.039122
   75  C 19  Y   -0.028724   0.060983  -0.032884  -0.027202  -0.011792
   76  C 19  Z   -0.058719  -0.019783  -0.017868  -0.012477  -0.036955
   77  C 20  S    0.150953   0.218170   0.140692  -0.116304   0.035907
   78  C 20  X   -0.018026  -0.037975   0.083190  -0.018421  -0.038382
   79  C 20  Y   -0.024336   0.071975   0.012776   0.030046  -0.003139
   80  C 20  Z   -0.057029  -0.014710   0.024685   0.019325  -0.030952
   81  C 21  S    0.076943  -0.010900   0.168859  -0.215154  -0.087687
   82  C 21  X   -0.068217  -0.071316   0.004527  -0.039462  -0.030976
   83  C 21  Y    0.005071   0.035970   0.069871  -0.002452   0.032612
   84  C 21  Z   -0.031461   0.019221   0.034402   0.012301   0.037550
   85  C 22  S    0.097966  -0.081612  -0.048732  -0.072381  -0.208371
   86  C 22  X   -0.066060  -0.032216  -0.036821  -0.031363  -0.060252
   87  C 22  Y    0.034682  -0.008751   0.013253  -0.019032  -0.021504
   88  C 22  Z   -0.024399   0.000174   0.055777  -0.099508   0.026542
   89  C 23  S   -0.097017  -0.077711  -0.167937  -0.068172  -0.138348
   90  C 23  X   -0.067946   0.024419  -0.016459  -0.012429   0.110277
   91  C 23  Y   -0.040609  -0.011017  -0.038702  -0.015346  -0.002992
   92  C 23  Z   -0.016145  -0.038057   0.047297  -0.105412   0.011305
   93  C 24  S   -0.202215  -0.109954  -0.054527  -0.198197   0.099559
   94  C 24  X   -0.007159   0.035827  -0.016973   0.052713   0.083111
   95  C 24  Y   -0.036623  -0.016990   0.032644  -0.020918   0.068128
   96  C 24  Z    0.046770  -0.022363   0.085507  -0.016195  -0.021634
   97  C 25  S   -0.061504  -0.062650   0.029228  -0.025329   0.104539
   98  C 25  X    0.019595   0.026300  -0.019083   0.004924  -0.026445
   99  C 25  Y    0.076455  -0.037629   0.019731   0.023463  -0.121360
  100  C 25  Z    0.008921  -0.073099   0.034873  -0.001595  -0.014452
  101  C 26  S   -0.215379   0.014176  -0.088552  -0.071115   0.266333
  102  C 26  X    0.058234   0.009984   0.030938   0.024964  -0.034957
  103  C 26  Y    0.005351   0.012718   0.034627   0.011097   0.032749
  104  C 26  Z    0.008482  -0.070615   0.047392  -0.042200  -0.006205
  105  C 27  S   -0.122482   0.224123  -0.081004   0.047739  -0.190949
  106  C 27  X   -0.023092   0.046804   0.056061   0.048553  -0.004843
  107  C 27  Y   -0.078434  -0.062680   0.001266   0.043558  -0.064855
  108  C 27  Z    0.039014   0.023895   0.062165   0.018721   0.053350
  109  C 28  S   -0.028938   0.260128   0.167584   0.075614  -0.051018
  110  C 28  X   -0.015089  -0.053950   0.085642   0.035105   0.020417
  111  C 28  Y   -0.065046  -0.018862  -0.024845   0.079287  -0.034087
  112  C 28  Z    0.000156  -0.050625   0.009933   0.001199   0.014959
  113  C 29  S   -0.078402   0.026880   0.249116   0.223536   0.027225
  114  C 29  X    0.017131  -0.089659   0.013782   0.000920   0.030580
  115  C 29  Y   -0.015852  -0.012348  -0.066520   0.069222   0.009341
  116  C 29  Z    0.015327  -0.006114  -0.016794  -0.036537  -0.005037
  117  C 30  S   -0.059524  -0.154001   0.292345   0.044175   0.071695
  118  C 30  X    0.001634  -0.048955  -0.043096  -0.015280   0.011042
  119  C 30  Y    0.020551  -0.008548  -0.011343   0.092519  -0.013686
  120  C 30  Z    0.009861   0.030920  -0.025859   0.005088  -0.009607
  121  C 31  S   -0.096887  -0.134248   0.209739  -0.210277   0.025902
  122  C 31  X   -0.043737  -0.030897  -0.042146   0.012813   0.057367
  123  C 31  Y    0.002057  -0.000948   0.072932   0.054270   0.041684
  124  C 31  Z    0.027631   0.024932   0.019861   0.049228   0.004809
  125  C 32  S    0.022156  -0.228785   0.133637   0.066787  -0.013084
  126  C 32  X    0.010326   0.028242  -0.048540  -0.031008  -0.022566
  127  C 32  Y    0.057911  -0.020153  -0.034862   0.046630  -0.076891
  128  C 32  Z   -0.020573   0.020038   0.014163   0.008515   0.029730
  129  C 33  S   -0.286241   0.053151  -0.071706   0.080101  -0.247528
  130  C 33  X   -0.037569   0.022439   0.028445   0.046409   0.037590
  131  C 33  Y    0.019962  -0.020969   0.027973   0.003307   0.070509
  132  C 33  Z    0.032354   0.062942   0.001190   0.048909   0.022454
  133  C 34  S   -0.233397   0.053658  -0.054830   0.170295   0.054680
  134  C 34  X    0.031861  -0.011744  -0.023955   0.028636   0.119593
  135  C 34  Y    0.044369  -0.018745  -0.017427  -0.043643   0.049318
  136  C 34  Z    0.031200   0.006169   0.005838   0.061175  -0.010295
  137  C 35  S   -0.098681  -0.023052   0.005176   0.307278   0.120059
  138  C 35  X    0.057794  -0.065012  -0.017053   0.005311   0.023675
  139  C 35  Y    0.008566  -0.005762  -0.077640  -0.033291   0.037767
  140  C 35  Z    0.019825  -0.000616   0.045733  -0.019585  -0.040208
  141  C 36  S   -0.228028  -0.160828  -0.031213  -0.056107  -0.211316
  142  C 36  X   -0.053259  -0.018569   0.044959  -0.006288  -0.014655
  143  C 36  Y    0.000984   0.060648   0.026439   0.015421   0.011929
  144  C 36  Z   -0.042759   0.054147  -0.063067   0.018283  -0.072463
  145  C 37  S   -0.114561   0.054348  -0.069034  -0.075992   0.197580
  146  C 37  X    0.061930   0.014100  -0.046832  -0.040161   0.059612
  147  C 37  Y    0.037408  -0.012628  -0.011468   0.018808  -0.018019
  148  C 37  Z   -0.019835  -0.015939  -0.054102   0.099606   0.033757
  149  C 38  S    0.078111   0.002580  -0.188019  -0.073868   0.140609
  150  C 38  X    0.069345  -0.029129  -0.009237  -0.012250  -0.104671
  151  C 38  Y   -0.036572   0.004891   0.040846   0.018894  -0.004001
  152  C 38  Z   -0.008207  -0.050164  -0.030214   0.108849   0.012199
  153  C 39  S    0.084133  -0.135672  -0.146188   0.172644   0.070628
  154  C 39  X    0.063734  -0.034164  -0.000703  -0.052069  -0.101504
  155  C 39  Y   -0.017249   0.045860  -0.023476  -0.053478   0.028099
  156  C 39  Z   -0.040651  -0.001539   0.068547   0.044382  -0.003872
  157  C 40  S    0.167457  -0.218174  -0.052937   0.097441  -0.155759
  158  C 40  X   -0.010392   0.028961   0.016804  -0.048606  -0.031830
  159  C 40  Y    0.010619   0.033909  -0.065252  -0.010593   0.020195
  160  C 40  Z   -0.058576  -0.002451   0.047640   0.043484   0.070020

                     11         12         13         14         15
                   -1.2198    -1.1425    -1.1209    -1.0834    -1.0783
                     A          A          A          A          A   
    1  C  1  S   -0.067132   0.096582   0.144667  -0.172226  -0.080387
    2  C  1  X    0.078312   0.041233  -0.005262   0.039039   0.057989
    3  C  1  Y    0.080421   0.117771  -0.059656  -0.002769  -0.045817
    4  C  1  Z    0.009449  -0.037448   0.051691   0.036688   0.089903
    5  C  2  S   -0.131965  -0.146894   0.106727  -0.219998  -0.069274
    6  C  2  X   -0.061618   0.057470   0.071921   0.008192  -0.002150
    7  C  2  Y   -0.029834   0.022011   0.005922  -0.009583  -0.061537
    8  C  2  Z   -0.024097  -0.017786   0.037645  -0.004529   0.053847
    9  C  3  S    0.162790   0.009407  -0.135468  -0.014719   0.140553
   10  C  3  X    0.083684  -0.011331   0.019033   0.015170   0.057868
   11  C  3  Y   -0.066408   0.016922  -0.019925   0.006091   0.017191
   12  C  3  Z    0.030424  -0.010981   0.020237  -0.016903  -0.114847
   13  C  4  S    0.263849  -0.079907  -0.103951  -0.078748   0.132008
   14  C  4  X   -0.021839  -0.049707   0.008141  -0.048657  -0.041356
   15  C  4  Y    0.013452  -0.008715  -0.014273   0.041279   0.048938
   16  C  4  Z    0.064825   0.055330   0.007830  -0.026429  -0.053813
   17  C  5  S    0.003155  -0.177598  -0.050309  -0.004060  -0.002946
   18  C  5  X   -0.073509  -0.005603   0.028276  -0.073650  -0.110202
   19  C  5  Y   -0.050196   0.026615  -0.000660   0.134564  -0.025455
   20  C  5  Z    0.044799  -0.033741  -0.008661  -0.077706   0.022659
   21  C  6  S    0.028924   0.311216  -0.103058  -0.098160  -0.130622
   22  C  6  X    0.081441   0.009804   0.052203  -0.032296   0.079041
   23  C  6  Y    0.011785   0.015596  -0.075212   0.047070   0.062843
   24  C  6  Z    0.073163   0.042345   0.032816  -0.034007   0.039399
   25  C  7  S   -0.104453  -0.122374  -0.185678  -0.075239   0.069897
   26  C  7  X   -0.037709   0.097404  -0.055062  -0.000724   0.074437
   27  C  7  Y    0.030374  -0.069218   0.029480  -0.092760   0.074346
   28  C  7  Z   -0.005919  -0.021016  -0.013720  -0.047322   0.056577
   29  C  8  S   -0.156000   0.097176  -0.206540   0.142152  -0.180221
   30  C  8  X    0.028943   0.098291  -0.042053  -0.101650   0.014161
   31  C  8  Y    0.005597  -0.035221  -0.029901  -0.034332   0.080619
   32  C  8  Z   -0.005647   0.032810  -0.032655  -0.017787  -0.003540
   33  C  9  S   -0.133778  -0.060923  -0.009325   0.341716  -0.069604
   34  C  9  X   -0.032299   0.017561  -0.079504  -0.044060  -0.127729
   35  C  9  Y   -0.027592   0.025180   0.021403   0.044554  -0.028771
   36  C  9  Z   -0.004073  -0.011101  -0.004004   0.017601   0.005601
   37  C 10  S   -0.081926   0.053686   0.232945   0.179973   0.139384
   38  C 10  X   -0.007286  -0.084682  -0.023884   0.134945  -0.059454
   39  C 10  Y    0.005844   0.000369   0.089394  -0.078115  -0.081122
   40  C 10  Z   -0.000597   0.029646   0.022397  -0.029436   0.030849
   41  C 11  S   -0.073212   0.146409  -0.028597  -0.048620   0.197529
   42  C 11  X    0.027238  -0.006564   0.067704   0.080039   0.087316
   43  C 11  Y   -0.061888   0.063144   0.084087  -0.054337  -0.039836
   44  C 11  Z   -0.010221  -0.002803  -0.092644  -0.043860  -0.038041
   45  C 12  S    0.002096   0.051289   0.086550   0.044282   0.179784
   46  C 12  X    0.074639  -0.014338  -0.010485   0.005789  -0.035089
   47  C 12  Y   -0.117285  -0.003349   0.035970   0.002769   0.014264
   48  C 12  Z    0.011542  -0.075243   0.083558   0.048849  -0.098697
   49  C 13  S    0.240129   0.160111  -0.008760  -0.022336   0.094801
   50  C 13  X   -0.001721  -0.052994   0.027886   0.014932  -0.003344
   51  C 13  Y   -0.048623  -0.035038  -0.004344   0.030863   0.055926
   52  C 13  Z    0.072466  -0.118985   0.047662   0.048178  -0.000703
   53  C 14  S   -0.156662  -0.008782  -0.042393  -0.082877   0.259967
   54  C 14  X    0.003887   0.072600   0.051858   0.054262   0.017764
   55  C 14  Y    0.005797  -0.029179   0.040485   0.001070  -0.044025
   56  C 14  Z   -0.039537   0.031237   0.093769   0.045412  -0.000980
   57  C 15  S    0.047387  -0.090186   0.044069   0.032309  -0.166548
   58  C 15  X    0.068563   0.021259   0.082443   0.001717  -0.004363
   59  C 15  Y   -0.079824  -0.066126  -0.004577   0.029019  -0.032485
   60  C 15  Z   -0.015240  -0.030561   0.129947   0.036999  -0.042784
   61  C 16  S   -0.147463  -0.131954  -0.143472   0.048085  -0.166857
   62  C 16  X   -0.018263  -0.051122   0.026674   0.036902  -0.013911
   63  C 16  Y   -0.023431   0.012102  -0.044854   0.011529   0.021365
   64  C 16  Z    0.025674  -0.075345   0.109503   0.080539   0.013002
   65  C 17  S   -0.152531   0.123054  -0.145458  -0.160012  -0.076561
   66  C 17  X   -0.023783   0.046646   0.019319  -0.037851   0.014394
   67  C 17  Y    0.023230   0.013065   0.050731  -0.008411  -0.025558
   68  C 17  Z   -0.022788  -0.070894  -0.105306   0.046271  -0.071083
[...]
  132  C 33  Z    0.014282   0.076745  -0.032818  -0.064905   0.065990
  133  C 34  S   -0.017419   0.003379   0.011207   0.020058   0.043308
  134  C 34  X    0.056531   0.011298  -0.052598  -0.071922   0.033242
  135  C 34  Y   -0.116057  -0.031210   0.128602   0.146577   0.071915
  136  C 34  Z   -0.083575  -0.000777   0.100835   0.070093   0.031007
  137  C 35  S    0.002522  -0.015625  -0.007755   0.024964  -0.076280
  138  C 35  X   -0.033569   0.030680   0.043722   0.005769   0.053792
  139  C 35  Y    0.042641  -0.064841  -0.052966   0.061730  -0.153759
  140  C 35  Z    0.082090  -0.126679  -0.108304   0.141772  -0.266937
  141  C 36  S    0.013007   0.038663  -0.017599  -0.007384  -0.066781
  142  C 36  X   -0.033886  -0.217718   0.083630   0.043322   0.075562
  143  C 36  Y   -0.002571   0.207447  -0.058521  -0.035827  -0.112521
  144  C 36  Z   -0.004668  -0.116675   0.039506   0.036889   0.010791
  145  C 37  S   -0.040001  -0.023083   0.028600  -0.013464  -0.059638
  146  C 37  X    0.071823   0.007384  -0.057496   0.041471   0.070542
  147  C 37  Y   -0.227937  -0.072362   0.195480  -0.090611  -0.090574
  148  C 37  Z    0.046430  -0.003615  -0.043254   0.007547   0.013883
  149  C 38  S    0.042396   0.038683  -0.047952  -0.003556  -0.010846
  150  C 38  X    0.009503   0.031001  -0.019198  -0.017041  -0.011352
  151  C 38  Y    0.200944   0.167565  -0.177545   0.029742   0.026961
  152  C 38  Z   -0.003399   0.013321   0.033002   0.026598  -0.021247
  153  C 39  S    0.024899  -0.011429  -0.032646  -0.022882   0.031283
  154  C 39  X    0.052682  -0.018072  -0.076612  -0.011296   0.008530
  155  C 39  Y    0.082322  -0.063291  -0.149384  -0.056154   0.094775
  156  C 39  Z    0.108432  -0.033799  -0.192184  -0.074764   0.092541
  157  C 40  S   -0.016412   0.007755   0.038568   0.014167   0.045880
  158  C 40  X   -0.130289   0.006878   0.172087  -0.021148   0.104442
  159  C 40  Y   -0.081698   0.014161   0.117070   0.012591   0.020488
  160  C 40  Z   -0.129291   0.010441   0.184035  -0.068373   0.028656

                     86         87         88         89         90
                   -0.0528    -0.0506    -0.0496    -0.0455    -0.0439
                     A          A          A          A          A   
    1  C  1  S   -0.028046   0.043664  -0.062176  -0.050780  -0.120455
    2  C  1  X   -0.103168   0.060525  -0.111330  -0.052169  -0.140661
    3  C  1  Y    0.034177  -0.047830   0.093034   0.009537   0.098346
    4  C  1  Z    0.044559  -0.058683   0.114373   0.018866   0.065333
    5  C  2  S   -0.016485  -0.073061   0.087457   0.034373   0.098744
    6  C  2  X    0.016413  -0.031447   0.056359   0.003040   0.061661
    7  C  2  Y    0.057516   0.100437  -0.149206   0.008429  -0.110630
    8  C  2  Z    0.006475   0.040813  -0.129630   0.065960  -0.123571
    9  C  3  S    0.060757   0.023460  -0.039324  -0.108376  -0.028868
   10  C  3  X   -0.086802  -0.087431   0.029935   0.122569   0.068626
   11  C  3  Y   -0.085196  -0.122287  -0.021175   0.013949   0.118936
   12  C  3  Z    0.032013  -0.078004   0.015560   0.008357   0.068047
   13  C  4  S   -0.003312  -0.054117  -0.025815  -0.068401   0.039616
   14  C  4  X    0.066537   0.054169   0.003881  -0.029070  -0.070359
   15  C  4  Y    0.051319   0.143296   0.058148   0.165894  -0.145388
   16  C  4  Z    0.094695   0.064070   0.045205   0.062918  -0.095618
   17  C  5  S    0.013201   0.040285   0.000392   0.068680  -0.041826
   18  C  5  X   -0.019488   0.017252  -0.068351  -0.079606  -0.028720
   19  C  5  Y   -0.054852  -0.021355  -0.015144  -0.096592   0.059250
   20  C  5  Z   -0.073564   0.037182  -0.069467  -0.186605   0.011781
   21  C  6  S    0.028078   0.047856   0.044370   0.056338   0.025582
   22  C  6  X    0.083177   0.082719   0.040335   0.065399  -0.017625
   23  C  6  Y    0.001178   0.059302  -0.014269  -0.011461  -0.044280
   24  C  6  Z   -0.073704  -0.034341   0.014922  -0.083963   0.095778
   25  C  7  S   -0.066670  -0.099515  -0.034760  -0.011732   0.027726
   26  C  7  X   -0.017094  -0.056071  -0.034034  -0.041340  -0.007690
   27  C  7  Y   -0.094069  -0.111554  -0.036637  -0.012521   0.028771
   28  C  7  Z    0.251304   0.226647   0.156849   0.051711   0.038649
   29  C  8  S    0.023279   0.012350   0.028981   0.001616   0.034912
   30  C  8  X    0.000790  -0.024126   0.021040  -0.037420   0.034213
   31  C  8  Y    0.055090   0.076695   0.025805   0.006868  -0.003773
   32  C  8  Z   -0.103906  -0.005760  -0.276355  -0.031689  -0.277267
   33  C  9  S    0.024684   0.021103  -0.004483  -0.036757  -0.033409
   34  C  9  X   -0.040440  -0.013789  -0.052028  -0.023786  -0.020894
   35  C  9  Y    0.018642   0.003574   0.037045   0.059717   0.002345
   36  C  9  Z   -0.053288  -0.219283   0.170856   0.083464   0.245616
   37  C 10  S   -0.069270  -0.040249  -0.079318  -0.060539   0.004266
   38  C 10  X    0.052595   0.025828   0.055431   0.078010  -0.012061
   39  C 10  Y   -0.027521  -0.017401  -0.011757   0.040682  -0.033072
   40  C 10  Z    0.243059   0.212947   0.102232   0.112493  -0.097624
   41  C 11  S    0.010825  -0.026262   0.093601   0.132491  -0.007234
   42  C 11  X   -0.057613   0.052634  -0.104669  -0.143331  -0.001531
   43  C 11  Y   -0.032733  -0.004680  -0.026544  -0.075287  -0.010865
   44  C 11  Z   -0.134003  -0.017132  -0.096721  -0.175962   0.010932
   45  C 12  S    0.046436   0.020608   0.020142   0.035502   0.116721
   46  C 12  X    0.109860   0.083060   0.079276   0.097592   0.165513
   47  C 12  Y    0.040556  -0.001028   0.007325   0.032702   0.120671
   48  C 12  Z    0.008925   0.027538  -0.043503   0.005524   0.007573
   49  C 13  S   -0.042579  -0.100647  -0.074451  -0.033683  -0.037823
   50  C 13  X   -0.119637  -0.204649  -0.185395  -0.104174  -0.065132
   51  C 13  Y   -0.029768   0.023201   0.010514  -0.011827  -0.044856
   52  C 13  Z    0.068487   0.065027   0.044628   0.064880   0.002829
   53  C 14  S    0.001492   0.087858  -0.010006   0.037323  -0.051845
   54  C 14  X    0.031491   0.063849   0.012029  -0.017988  -0.097250
   55  C 14  Y    0.035513   0.168678  -0.014858   0.054310  -0.047464
   56  C 14  Z   -0.091160  -0.141593  -0.055408  -0.031637   0.057289
   57  C 15  S   -0.095624   0.050518   0.006560   0.120266  -0.022524
   58  C 15  X    0.122583  -0.065786   0.053404  -0.124528   0.042921
   59  C 15  Y    0.173034  -0.022531  -0.028203  -0.142614   0.051117
   60  C 15  Z   -0.074616   0.047364   0.003614   0.043634  -0.062168
   61  C 16  S    0.028063  -0.089156   0.093533  -0.072987   0.013534
   62  C 16  X   -0.087190   0.165801  -0.131494   0.157517  -0.046028
   63  C 16  Y   -0.050403   0.001636   0.008228   0.035967  -0.013437
   64  C 16  Z    0.032020  -0.036374   0.035459  -0.135460   0.041576
   65  C 17  S    0.024915   0.089556  -0.094087  -0.074028   0.012131
   66  C 17  X   -0.081927  -0.167528   0.132818   0.159090  -0.044235
   67  C 17  Y    0.050426   0.002861   0.007685  -0.036121   0.013547
   68  C 17  Z   -0.030597  -0.036686   0.036180   0.135662  -0.041025
   69  C 18  S    0.062482   0.044033  -0.010067  -0.071757  -0.063329
   70  C 18  X    0.018501   0.024568   0.052454   0.001376   0.026409
   71  C 18  Y    0.127100   0.084714  -0.083216  -0.059077  -0.112884
   72  C 18  Z   -0.088890  -0.068951   0.135748  -0.039365   0.153569
   73  C 19  S    0.056444   0.032623   0.067216  -0.014040   0.060776
   74  C 19  X   -0.095947  -0.046395  -0.098226   0.065132  -0.062526
   75  C 19  Y    0.010541   0.001353   0.077113  -0.025909   0.095165
   76  C 19  Z   -0.074511  -0.045722  -0.198056  -0.032764  -0.149509
   77  C 20  S    0.056704  -0.031269  -0.067378  -0.013408   0.060493
   78  C 20  X   -0.096310   0.044346   0.098888   0.064493  -0.062484
   79  C 20  Y   -0.009627   0.000818   0.077170   0.025859  -0.095076
   80  C 20  Z    0.073663  -0.043771  -0.198240   0.033057   0.148943
   81  C 21  S    0.063856  -0.043088   0.009328  -0.071428  -0.062999
   82  C 21  X    0.018511  -0.024074  -0.052383   0.001661   0.026209
   83  C 21  Y   -0.130134   0.082335  -0.081821   0.058400   0.111937
   84  C 21  Z    0.091608  -0.067289   0.135004   0.039415  -0.152740
   85  C 22  S   -0.087905   0.023921   0.035901   0.125244   0.014138
   86  C 22  X    0.058732  -0.053292   0.006827  -0.088027   0.005256
   87  C 22  Y    0.154166  -0.007746  -0.045381  -0.159326  -0.003441
   88  C 22  Z   -0.059284   0.016426  -0.017687   0.035744   0.026269
   89  C 23  S    0.057992   0.080049  -0.065696  -0.080752  -0.028567
   90  C 23  X    0.014352   0.061894  -0.046066  -0.035664  -0.006641
   91  C 23  Y   -0.159871  -0.093798   0.117827   0.153754   0.014839
   92  C 23  Z   -0.014108   0.009721   0.035282  -0.015728   0.025071
   93  C 24  S    0.003362  -0.087967   0.010251   0.037268  -0.052005
   94  C 24  X    0.033005  -0.063829  -0.012014  -0.017886  -0.097442
   95  C 24  Y   -0.039263   0.168294  -0.014638  -0.054395   0.047091
   96  C 24  Z    0.093879  -0.139989  -0.055877   0.032100  -0.056891
   97  C 25  S   -0.044475   0.099542   0.075071  -0.034501  -0.038950
   98  C 25  X   -0.122630   0.201243   0.186419  -0.105529  -0.066853
   99  C 25  Y    0.029136   0.024160   0.010116   0.011636   0.044757
  100  C 25  Z   -0.069351   0.063155   0.044995  -0.065028  -0.003249
  101  C 26  S    0.046679  -0.018981  -0.021114   0.035769   0.117579
  102  C 26  X    0.110656  -0.079318  -0.080781   0.098045   0.166355
  103  C 26  Y   -0.040352  -0.002705   0.008167  -0.032798  -0.121233
  104  C 26  Z   -0.009930   0.027463  -0.043177  -0.005432  -0.007983
  105  C 27  S    0.009476   0.026715  -0.092844   0.132161  -0.008117
  106  C 27  X   -0.055762  -0.054266   0.104382  -0.143274  -0.000356
  107  C 27  Y    0.033102  -0.003658  -0.026502   0.076190   0.010923
  108  C 27  Z    0.134416  -0.014016  -0.097001   0.176939  -0.011700
  109  C 28  S   -0.069778   0.038955   0.079349  -0.060847   0.004854
  110  C 28  X    0.052739  -0.024434  -0.055371   0.078132  -0.012222
  111  C 28  Y    0.027750  -0.016781  -0.012065  -0.040343   0.033092
  112  C 28  Z   -0.246622   0.207643   0.103276  -0.113249   0.097457
  113  C 29  S    0.025321  -0.021325   0.004355  -0.036854  -0.033731
  114  C 29  X   -0.040180   0.012415   0.052376  -0.024101  -0.020853
  115  C 29  Y   -0.018698   0.003022   0.036945  -0.059775  -0.002370
  116  C 29  Z    0.058549  -0.219199   0.170345  -0.084118  -0.244243
  117  C 30  S    0.023043  -0.011452  -0.028996   0.001864   0.034758
  118  C 30  X   -0.000116   0.024234  -0.021506  -0.037618   0.034505
  119  C 30  Y   -0.056637   0.075625   0.026366  -0.007109   0.003438
  120  C 30  Z    0.100897  -0.001559  -0.277388   0.032541   0.277214
  121  C 31  S   -0.068559   0.098144   0.035154  -0.012138   0.027572
  122  C 31  X   -0.018008   0.055713   0.034147  -0.041498  -0.007779
  123  C 31  Y    0.096027  -0.109503  -0.037365   0.012855  -0.028455
  124  C 31  Z   -0.254541   0.220686   0.158825  -0.052812  -0.039488
  125  C 32  S    0.029090  -0.047069  -0.044819   0.056728   0.026013
  126  C 32  X    0.085156  -0.080995  -0.040874   0.066184  -0.017243
  127  C 32  Y   -0.002586   0.059662  -0.014306   0.011364   0.043711
  128  C 32  Z    0.075180  -0.033195   0.014823   0.084240  -0.095973
  129  C 33  S    0.061370  -0.022775   0.038378  -0.108921  -0.028903
  130  C 33  X   -0.088009   0.086073  -0.028560   0.123036   0.068168
  131  C 33  Y    0.086919  -0.121030  -0.021958  -0.014202  -0.118713
  132  C 33  Z   -0.030196  -0.079049   0.015567  -0.008131  -0.067538
  133  C 34  S   -0.004555   0.054128   0.025519  -0.068614   0.039535
  134  C 34  X    0.067302  -0.052903  -0.004406  -0.029509  -0.070083
  135  C 34  Y   -0.054345   0.142486   0.057912  -0.166425   0.145334
  136  C 34  Z   -0.095782   0.062439   0.045617  -0.062867   0.095990
  137  C 35  S    0.014115  -0.039959   0.000102   0.068428  -0.041638
  138  C 35  X   -0.018744  -0.017933   0.068424  -0.079768  -0.028406
  139  C 35  Y    0.055858  -0.020508  -0.014769   0.097081  -0.059815
  140  C 35  Z    0.073102   0.039099  -0.069100   0.187260  -0.012459
  141  C 36  S   -0.094028  -0.052219  -0.005497   0.121277  -0.021909
  142  C 36  X    0.120063   0.068287  -0.054942  -0.125547   0.042071
  143  C 36  Y   -0.172154  -0.026024  -0.026375   0.143807  -0.050868
  144  C 36  Z    0.073334   0.049114   0.003076  -0.043898   0.061969
  145  C 37  S   -0.087068  -0.025407  -0.034857   0.125943   0.014471
  146  C 37  X    0.057038   0.054290  -0.007646  -0.088334   0.004959
  147  C 37  Y   -0.153429  -0.010324  -0.043822   0.160111   0.003695
  148  C 37  Z    0.058559   0.017416  -0.018275  -0.035856  -0.026548
  149  C 38  S    0.059826  -0.079201   0.065283  -0.081201  -0.028554
  150  C 38  X    0.016033  -0.061759   0.046111  -0.035924  -0.006478
  151  C 38  Y    0.162060  -0.091130   0.116406  -0.154615  -0.014679
  152  C 38  Z    0.014161   0.010005   0.035313   0.015643  -0.025085
  153  C 39  S   -0.018603   0.073314  -0.087952   0.034855   0.098546
  154  C 39  X    0.015188   0.032123  -0.056912   0.002995   0.061579
  155  C 39  Y   -0.060943   0.099596  -0.149323  -0.008016   0.110201
  156  C 39  Z   -0.008701   0.040998  -0.130411  -0.065591   0.123105
  157  C 40  S   -0.026819  -0.045004   0.063027  -0.051042  -0.119984
  158  C 40  X   -0.101349  -0.063436   0.112899  -0.052691  -0.139842
  159  C 40  Y   -0.032431  -0.048869   0.093648  -0.009910  -0.097738
  160  C 40  Z   -0.042455  -0.059748   0.114745  -0.019381  -0.064969

     ----------------------------------------------------------------
     PROPERTY VALUES FOR THE RHF   SELF-CONSISTENT FIELD WAVEFUNCTION
     ----------------------------------------------------------------

                    -------------
                    MOPAC CHARGES
                    -------------
         ATOM NO.   TYPE          CHARGE        ATOM  ELECTRON DENSITY
           1         C              0.0284          3.9716
           2         C             -0.0059          4.0059
           3         C              0.0223          3.9777
           4         C             -0.0225          4.0225
           5         C             -0.0001          4.0001
           6         C             -0.0217          4.0217
           7         C             -0.0396          4.0396
           8         C              0.0448          3.9552
           9         C              0.0131          3.9869
          10         C             -0.0127          4.0127
          11         C             -0.0023          4.0023
          12         C             -0.0127          4.0127
          13         C             -0.0098          4.0098
          14         C              0.0304          3.9696
          15         C              0.0113          3.9887
          16         C             -0.0209          4.0209
          17         C             -0.0208          4.0208
          18         C              0.0386          3.9614
          19         C              0.0015          3.9985
          20         C              0.0015          3.9985
          21         C              0.0386          3.9614
          22         C             -0.0037          4.0037
          23         C             -0.0385          4.0385
          24         C              0.0304          3.9696
          25         C             -0.0099          4.0099
          26         C             -0.0125          4.0125
          27         C             -0.0025          4.0025
          28         C             -0.0127          4.0127
          29         C              0.0135          3.9865
          30         C              0.0446          3.9554
          31         C             -0.0396          4.0396
          32         C             -0.0217          4.0217
          33         C              0.0225          3.9775
          34         C             -0.0225          4.0225
          35         C             -0.0004          4.0004
          36         C              0.0113          3.9887
          37         C             -0.0036          4.0036
          38         C             -0.0385          4.0385
          39         C             -0.0058          4.0058
          40         C              0.0284          3.9716

          ---------------------
          ELECTROSTATIC MOMENTS
          ---------------------

 POINT   1           X           Y           Z (ANGS)      CHARGE
                 0.000000    0.000000    0.000000        0.00 (A.U.)
         DX          DY          DZ         /D/  (DEBYE)
    -0.031001    0.002230   -0.000571    0.031086
 ...... END OF PROPERTY EVALUATION ......
 CPU     0: STEP CPU TIME=     0.03 TOTAL CPU TIME=          0.7 (      0.0 MIN)
 TOTAL WALL CLOCK TIME=          0.9 SECONDS, CPU UTILIZATION IS    79.48%
  $VIB   
          IVIB=   0 IATOM=   0 ICOORD=   0 E=     -172.9194882173
 -1.275102608E-04 9.226716136E-05-3.888884841E-04-7.921073390E-05 3.615563960E-05
 -2.888206090E-04 1.954256185E-04 2.306970203E-04 1.540432293E-04-6.448478086E-05
 -2.117056316E-04 9.122651486E-07-6.407664344E-05 1.889599394E-04 1.894731898E-04
  9.253189990E-05 8.097586979E-05-9.539401460E-05 1.644532014E-04 7.788054949E-05
 -1.862549325E-05-1.462095981E-04-3.681842832E-05 1.638862579E-04 3.456588048E-05
 -7.695617552E-05-2.708456395E-04 1.838375677E-04-1.211045454E-04 2.304428913E-04
  2.909273315E-05-2.883318982E-04-2.433163434E-04-1.471403187E-04-1.475969605E-04
 -9.534833882E-05-2.840842271E-05 1.466308531E-04-2.796196834E-04 1.028447500E-04
  4.200014881E-05-1.487031367E-04-1.346181370E-04-1.371027946E-04-2.337671681E-04
 -3.354548028E-04-1.428364355E-04-3.086435250E-06-2.701586788E-04 2.297870309E-04
  1.716725207E-04-1.161964443E-04-3.004442968E-05 1.926921311E-04-2.043695437E-05
  1.437076305E-04-1.009306741E-05 1.494944021E-04-1.349796258E-04-2.585082419E-04
 -2.033241977E-04-7.235161566E-05-1.212434023E-04-3.846870388E-05 3.407179852E-05
  2.124362617E-04-2.161227860E-04-2.626355171E-04-8.817386767E-05 8.579846986E-05
  2.405095702E-06 3.896006132E-04 2.902020960E-04-1.864198794E-04 2.387626646E-04
  2.508930972E-04 8.516840658E-05 4.465096213E-04 5.017068674E-04 2.814764583E-05
  4.804658769E-05-1.707073902E-04 5.854064579E-05-7.692054965E-05-2.307652279E-05
  3.758068690E-04 8.080713455E-04-1.221023958E-04 2.226488959E-04-4.351517126E-04
  3.336457364E-04-1.980066313E-04 3.826115300E-05-1.812951351E-04-1.524180060E-04
  9.664672498E-05-4.129227986E-05 1.501129867E-04-1.487680265E-05-8.242170493E-05
  2.258566224E-04 2.740665347E-05 2.246337868E-04-4.624799427E-04-5.714851988E-04
  7.017230522E-05-5.183479533E-05-3.756684515E-05-3.524948620E-05-4.266811933E-05
 -1.306184168E-04-1.008839109E-04 9.339275889E-05 1.922232672E-06-1.943662830E-04
  1.792008752E-04 3.352481847E-04 2.339181600E-04 3.187698830E-05 6.501892292E-05
 -3.100050880E-02 2.229894091E-03-5.710924104E-04
 ......END OF GEOMETRY SEARCH......
 CPU     0: STEP CPU TIME=     0.02 TOTAL CPU TIME=          0.7 (      0.0 MIN)
 TOTAL WALL CLOCK TIME=          0.9 SECONDS, CPU UTILIZATION IS    79.81%
                580000  WORDS OF DYNAMIC MEMORY USED
 EXECUTION OF GAMESS TERMINATED NORMALLY 21:10:14 27-MAY-2023    
 DDI: 263640 bytes (0.3 MB / 0 MWords) used by master data server.

 ----------------------------------------
 CPU timing information for all processes
 ========================================
 0: 0.500000 + 0.218750 = 0.718750
 1: 0.453125 + 0.062500 = 0.515625
 2: 0.296875 + 0.218750 = 0.515625
 3: 0.218750 + 0.359375 = 0.578125
 ----------------------------------------
           Disk usage (in bytes)       
 ========================================
 ----------------------------------------
            Local date and time          
 ========================================
27.05.2023 - 21:10:14,31                          
