          *******************************************************
          *                                                     *
          *          GAMESS VERSION = 30 SEP 2022 (R2)          *
          *                                                     *
          *              doi.org/10.1063/5.0005188              *
          *                                                     *
          *************** 64 BIT WINDOWS VERSION ****************

  GAMESS HAS BEEN MADE POSSIBLE WITH IMPORTANT CONTRIBUTIONS FROM
  THE FOLLOWING INDIVIDUALS (IN ALPHABETICAL ORDER):

     IVANA ADAMOVIC, CHRISTINE AIKENS, TOMOKO AKAMA,
     MELISA ALKAN, YURI ALEXEEV, YURIKO AOKI, POOJA ARORA,
     TOSHIO ASADA, ANDREY ASADCHEV, KIM K. BALDRIDGE,
     PRADIPTA BANDYOPADHYAY, TAYLOR A. BARNES, MARIA BARYSZ,
     ROB BELL, JONATHAN BENTZ, COLLEEN BERTONI,
     JERRY A. BOATZ, BRETT BODE, KURT BRORSEN, KURT R. BRORSEN,
     LAIMUTIS BYTAUTAS, CALEB CARLIN, LAURA CARRINGTON,
     GALINA CHABAN, BENOIT CHAMPAGNE, WEI CHEN, MAHITO CHIBA,
     DAN CHIPMAN, CHEOL HO CHOI, TANNER CULPITT,
     DIPAYAN DATTA, PAUL DAY, ALBERT DEFUSCO,
     NUWAN DESILVA, J. EMILIANO DEUSTUA,
     TIM DUDLEY, MICHEL DUPUIS, STEVEN T. ELBERT,
     DMITRI FEDOROV, KATHERINE FERRERAS, MICHAEL FILATOV,
     ALEX FINDLATER,GRAHAM FLETCHER, MARK FREITAG,
     CHRISTIAN FRIEDL, DAVID GARMER, 
     IGOR S. GERASIMOV, KURT GLAESEMANN,
     MARK S. GORDON, JEFFREY GOUR, FENG LONG GU,
     EMILIE B. GUIDEZ, ANASTASIA GUNINA, SHARON HAMMES-SCHIFFER,
     MASATAKE HARUTA, KIMIHIKO HIRAO, YASUHIRO IKABATA,
     TZVETELIN IORDANOV, STEPHAN IRLE, KAZUYA ISHIMURA,
     JOE IVANIC, FRANK JENSEN, JAN H. JENSEN, VISVALDAS KAIRYS,
     MUNEAKI KAMIYA, MICHIO KATOUDA, NAOAKI KAWAKAMI, DAN KEMP,
     BERNARD KIRTMAN, KAZUO KITAURA, MARIUSZ KLOBUKOWSKI,
     MASATO KOBAYASHI, KONSTANTIN KOMAROV, PRAKASHAN KORAMBATH,
     JACEK KORCHOWIEC, SHIRO KOSEKI, KAROL KOWALSKI,
     JIMMY KROMANN, STANISLAW KUCHARSKI, HENRY KURTZ,
     SAROM SOK LEANG, SEUNGHOON LEE, HUI LI, SHUHUA LI, WEI LI,
     JESSE LUTZ, ALEKSANDR O. LYKHIN, MARCIN MAKOWSKI,
     JOANI MATO, NIKITA MATSUNAGA, BENEDETTA MENNUCCI,
     GRANT MERRILL, NORIYUKI MINEZAWA, VLADIMIR MIRONOV,
     EISAKU MIYOSHI, JOHN A. MONTGOMERY JR., HIROTOSHI MORI,
     JONATHAN MULLIN, MONIKA MUSIAL, SHIGERU NAGASE,
     TAKESHI NAGATA, HIROMI NAKAI, TAKAHITO NAKAJIMA,
     YUYA NAKAJIMA, HARUYUKI NAKANO, HIROYA NAKATA, SEAN NEDD,
     HEATHER NETZLOFF, KIET A. NGUYEN, YOSHIO NISHIMOTO,
     BOSILJKA NJEGIC, RYAN OLSON, MIKE PAK, ROBERTO PEVERATI,
     BUU PHAM, PIOTR PIECUCH, ANNA POMOGAEVA, DAVID POOLE,
     SPENCER PRUITT, OLIVIER QUINET, LUKE ROSKOP,
     KLAUS RUEDENBERG, ANDREW SAND, TOSAPORN SATTASATHUCHANA,
     NOZOMI SAWADA, MICHAEL W. SCHMIDT, PATRICK E. SCHNEIDER,
     JUNJI SEINO, PRACHI SHARMA, JUN SHEN, JIM SHOEMAKER,
     YINAN SHU, DEJUN SI, JONATHAN SKONE, LYUDMILA SLIPCHENKO,
     TONY SMITH, JIE SONG, MARK SPACKMAN, CASPER STEINMANN,
     WALT STEVENS, PEIFENG SU, SHUJUN SU, CHET SWALINA,
     CHINAMI TAKASHIMA, TETSUYA TAKETSUGU, ZHEN TAO,
     NANDUN THELLAMUREGE, SEIKEN TOKURA, JACOPO TOMASI,
     TSUGUKI TOUMA, TAKAO TSUNEDA, HIROAKI UMEDA,
     JORGE LUIS GALVEZ VALLEJO, YALI WANG, SIMON WEBB,
     AARON WEST, THERESA L. WINDUS, MARTA WLOCH,
     PENG XU, KIYOSHI YAGI, SUSUMU YANAGISAWA, YANG YANG,
     SOOHAENG YOO, TAKESHI YOSHIKAWA, FEDERICO ZAHARIEV,
     TOBY ZENG

  WHO ARE SUPPORTED BY THEIR INSTITUTION/UNIVERSITY/COMPANY/GROUP
  (IN ALPHABETICAL ORDER):

     EP ANALYTICS,
     FACULTES UNIVERSITAIRES NOTRE-DAME DE LA PAIX,
     INSTITUTE FOR MOLECULAR SCIENCE, IOWA STATE UNIVERSITY,
     JACKSON STATE UNIVERSITY, JOHANNES KEPLER UNIVERSITY LINZ,
     KYUNGPOOK NATIONAL UNIVERSITY
     KYUSHU UNIVERSITY, MICHIGAN STATE UNIVERSITY,
     MIE UNIVERSITY, THE MOLECULAR SCIENCES SOFTWARE INSTITUTE,
     MOSCOW STATE UNIVERSITY,
     N. COPERNICUS UNIVERSITY, NAGOYA UNIVERSITY,
     NANJING UNIVERSITY, NAT. INST. OF ADVANCED INDUSTRIAL
     SCIENCE AND TECHNOLOGY, NATIONAL INST. OF STANDARDS AND
     TECHNOLOGY, NESMEYANOV INSTITUTE OF ORGANOELEMENT COMPOUNDS
     OF RUSSIAN ACADEMY OF SCIENCES, OSAKA PREFECTURE UNIVERSITY,
     PENNSYLVANIA STATE UNIVERSITY, TOKYO INSTITUTE OF TECHNOLOGY,
     UNIVERSITY OF AARHUS, UNIVERSITY OF ALBERTA,
     UNIVERSITY OF CALIFORNIA AT SANTA BARBARA,
     UNIVERSITY OF COPENHAGEN, UNIVERSITY OF IOWA,
     UNIVERSITY OF MEMPHIS, UNIVERSITY OF MINNESOTA,
     UNIVERSITY OF NEBRASKA, UNIVERSITY OF NEW ENGLAND,
     UNIVERSITY OF NOTRE DAME, UNIVERSITY OF PISA,
     UNIVERSITY OF SILESIA, UNIVERSITY OF TOKYO,
     UNIVERSITY OF ZURICH, WASEDA UNIVERSITY,
     YALE UNIVERSITY

  GAMESS SOFTWARE MANAGEMENT TEAM FOR THIS RELEASE:
     MARK S. GORDON (TEAM LEAD),
     BRETT BODE (SENIOR ADVISOR),
     GIUSEPPE BARCA,
     COLLEEN BERTONI,
     KRISTOPHER KEIPERT (ADVISOR),
     SAROM S. LEANG (DEVELOPMENT LEAD),
     BUU PHAM,
     JACKSON HAYES (WEBSITE ADMINISTRATOR),
     PENG XU


 PARALLEL VERSION RUNNING ON        2 PROCESSORS IN        2 NODES.

 EXECUTION OF GAMESS BEGUN 21:10:18 27-MAY-2023    

            ECHO OF THE FIRST FEW INPUT CARDS -
 INPUT CARD>! (Energy/Geometry) PM3                                                         
 INPUT CARD> $CONTRL                                                                        
 INPUT CARD>COORD=UNIQUE                                                                    
 INPUT CARD>ICHARG=0                                                                        
 INPUT CARD>MAXIT=200                                                                       
 INPUT CARD>MULT=1                                                                          
 INPUT CARD>RUNTYP=OPTIMIZE                                                                 
 INPUT CARD>SCFTYP=RHF                                                                      
 INPUT CARD>UNITS=ANGS                                                                      
 INPUT CARD>! DFTTYP=PBE                                                                    
 INPUT CARD> $END                                                                           
 INPUT CARD> $DFT                                                                           
 INPUT CARD>METHOD=GRID                                                                     
 INPUT CARD> $END                                                                           
 INPUT CARD> $BASIS                                                                         
 INPUT CARD>! EXTFIL=.T.                                                                    
 INPUT CARD>! GBASIS=GEGSSBAS                                                               
 INPUT CARD>! NGAUSS=6                                                                      
 INPUT CARD>GBASIS=PM3                                                                      
 INPUT CARD>! NDFUNC=1                                                                      
 INPUT CARD>! NPFUNC=1                                                                      
 INPUT CARD> $END                                                                           
 INPUT CARD> $SCF                                                                           
 INPUT CARD>DAMP=.F.                                                                        
 INPUT CARD>DEM=.F.                                                                         
 INPUT CARD>DIIS=.F.                                                                        
 INPUT CARD>DIRSCF=.T.                                                                      
 INPUT CARD>EXTRAP=.T.                                                                      
 INPUT CARD>RSTRCT=.F.                                                                      
 INPUT CARD>SHIFT=.F.                                                                       
 INPUT CARD>SOSCF=.T.                                                                       
 INPUT CARD> $END                                                                           
 INPUT CARD> $STATPT                                                                        
 INPUT CARD>METHOD=QA                                                                       
 INPUT CARD>NSTEP=100                                                                       
 INPUT CARD>OPTTOL=0.001                                                                    
 INPUT CARD> $END                                                                           
 INPUT CARD> $GUESS                                                                         
 INPUT CARD>GUESS=HUCKEL                                                                    
 INPUT CARD> $END                                                                           
 INPUT CARD> $SYSTEM                                                                        
 INPUT CARD>MWORDS=10                                                                       
 INPUT CARD> $END                                                                           
 INPUT CARD> $DATA                                                                          
 INPUT CARD>C40 FULLERENE                                                                   
 INPUT CARD>C1                                                                              
 INPUT CARD>C	6.0	-2.9084	1.1738	-0.6812                                                    
 INPUT CARD>C	6.0	-2.9244	-1.2068	0.6557                                                    
 INPUT CARD>C	6.0	-2.8847	-0.0283	1.3727                                                    
 INPUT CARD>C	6.0	-2.8756	1.1731	0.6872                                                     
     10000000 WORDS OF MEMORY AVAILABLE

     BASIS OPTIONS
     -------------
     GBASIS=PM3          IGAUSS=       0      POLAR=NONE    
     NDFUNC=       0     NFFUNC=       0     DIFFSP=       F
     NPFUNC=       0      DIFFS=       F     BASNAM=        


     RUN TITLE
     ---------
 C40 FULLERENE                                                                   

 THE POINT GROUP OF THE MOLECULE IS C1      
 THE ORDER OF THE PRINCIPAL AXIS IS     0

 ATOM      ATOMIC                      COORDINATES (BOHR)
           CHARGE         X                   Y                   Z
 C           6.0    -5.4960790627        2.2181603644       -1.2872813428
 C           6.0    -5.5263146785       -2.2805213220        1.2390933301
 C           6.0    -5.4512925568       -0.0534792455        2.5940268633
 C           6.0    -5.4340960503        2.2168375562        1.2986196988
 C           6.0    -3.3378230121        3.5224492411       -1.9891255747
 C           6.0    -2.0528093405        2.2353568709       -3.8484269740
 C           6.0     0.5329027285        2.3083002940       -3.9285513559
 C           6.0    -3.3298861630        3.5273625287        2.0819111207
 C           6.0    -1.9683385888        4.4918786728        0.0402511635
 C           6.0     1.9203395487       -3.7575311540       -2.1765863927
 C           6.0     0.6510106028       -2.2410260488       -4.0168015595
 C           6.0     1.9598348219        0.0939193816       -4.3752825794
 C           6.0     4.3529838127        0.4843367707       -3.4211599282
 C           6.0     5.7895535086       -1.1912832627       -2.0883361890
 C           6.0     4.3055516904       -3.1618895227       -1.2989976440
 C           6.0     0.6886161499        4.5990261363        0.0243774652
 C           6.0     1.9796769447        3.7520509486       -2.2036094743
 C           6.0     4.3771723054        2.7298981619       -2.0970289286
 C           6.0    -2.0061331086       -2.2172155014       -3.8968039593
 C           6.0    -3.3964045177        0.0128501367       -4.0891780648
 C           6.0     0.5128716331       -4.5287283296       -0.0370386294
 C           6.0    -2.0756750249       -4.4187462771       -0.0362827390
 C           6.0    -3.4071759559       -3.5148903372       -2.0913597506
 C           6.0    -3.3678696553       -3.5364332134        2.0348569436
 C           6.0     4.3407005938       -3.2155577407        1.2810452471
 C           6.0     1.9407485894       -3.8300966319        2.1144144077
 C           6.0     6.7733448578        0.0222987667       -0.0068030136
 C           6.0    -5.5947227592       -2.2708837194       -1.3751536013
 C           6.0    -5.5769593350       -0.0171965065       -2.6458053554
 C           6.0     5.7691444679       -1.2183063443        2.0783206413
 C           6.0     4.3202915531        0.4724314969        3.3708932169
 C           6.0     1.9312999595        0.0126611641        4.3363542240
 C           6.0     0.6430737536       -2.3532757725        3.9820306013
 C           6.0    -2.0152037933       -2.2831669384        3.9153232740
 C           6.0     4.3654560042        2.7576771339        2.1472956398
 C           6.0     5.8290487817        2.4556989210        0.0366606842
 C           6.0    -2.0677381758        2.1956726251        3.9310079997
 C           6.0     0.5257217698        2.2750411166        3.9803298479
 C           6.0     1.9573781781        3.7567752636        2.2786315960
 C           6.0    -3.3650350663       -0.0470541771        4.1513500498

          INTERNUCLEAR DISTANCES (ANGS.)
          ------------------------------

                1 C          2 C          3 C          4 C          5 C     

   1 C       0.0000000    2.7303505 *  2.3799394 *  1.3687932 *  1.3851738 *
   2 C       2.7303505 *  0.0000000    1.3800461 *  2.3806087 *  3.6999050  
   3 C       2.3799394 *  1.3800461 *  0.0000000    1.3832408 *  3.2731786  
   4 C       1.3687932 *  2.3806087 *  1.3832408 *  0.0000000    2.1759580 *
   5 C       1.3851738 *  3.6999050    3.2731786    2.1759580 *  0.0000000  
   6 C       2.2708961 *  4.0419325    4.0402837    3.2588698    1.3763562 *
   7 C       3.4834599    4.8637104    4.8480441    4.1981055    2.3794182 *
   8 C       2.2299569 *  3.3159682    2.2190804 *  1.3757306 *  2.1543057 *
   9 C       2.3294074 *  4.0976849    3.3179463    2.2926740 *  1.3934204 *
  10 C       5.0619619    4.4052563    5.0430262    5.3407032    4.7532234  
  11 C       4.2703435    4.2920594    4.8995789    4.8832130    3.8611780  
  12 C       4.4159771    5.1087293    5.3840452    5.0582858    3.5700346  
  13 C       5.4111737    5.9626545    6.0934836    5.8225085    4.4409720  
  14 C       6.2530638    6.2681732    6.4718992    6.4606684    5.4363303  
  15 C       5.9167847    5.3935679    5.7971812    6.0460454    5.3856061  
  16 C       3.5749605    4.9479933    4.2973423    3.5413829    2.4494348 *
  17 C       4.0674219    5.4117020    5.0954763    4.4143191    2.8188079 *
  18 C       5.2492318    6.1328212    5.9482893    5.5007624    4.1044829  
  19 C       3.2903546    3.2950847    4.0537106    4.0441117    3.2773287  
  20 C       2.1897104 *  3.2700648    3.7001636    3.2637031    2.1645185 *
  21 C       4.8265811    3.4762845    4.1842368    4.8109479    4.8343739  
  22 C       4.0061441    2.2516790 *  3.2348653    3.9984210    4.3787363  
  23 C       3.2568239    2.1886667 *  3.2668982    3.6835097    3.7245738  
  24 C       3.6921719    1.3869532 *  2.1679669 *  3.2582652    4.2997454  
  25 C       6.1001039    5.2448392    5.4893255    5.9177510    5.6761378  
  26 C       5.3825248    4.0620827    4.3999788    5.0651764    5.2589221  
  27 C       6.6305761    6.6545352    6.6139074    6.5997068    5.7584691  
  28 C       2.3765284 *  1.3838829 *  2.4071370 *  2.7656540 *  3.3061199  
  29 C       1.3848832 *  2.3793943 *  2.7736638 *  2.4000278 *  2.2434901 *
  30 C       6.4819751    6.0200745    5.9757441    6.2146398    5.8438934  
  31 C       5.8235299    5.5267738    5.1946762    5.3571284    5.2031642  
  32 C       5.0661768    4.4421815    4.0141766    4.3744521    4.7358840  
  33 C       4.9174456    3.5730380    3.5243729    4.2669745    4.9081408  
  34 C       4.0800058    2.3361910 *  2.2775556 *  3.2956317    4.4374287  
  35 C       5.5333135    5.8939847    5.4087693    5.2129728    4.6445777  
  36 C       6.0351214    6.5417504    6.2631475    5.9988264    4.9999075  
  37 C       3.3040571    3.3150523    2.2634095 *  2.2614067 *  3.2801065  
  38 C       4.2338495    4.2629053    3.4728119    3.4585037    3.8202567  
  39 C       4.4475166    5.1178649    4.4117617    4.0289028    3.6010430  
  40 C       3.3153390    2.2538692 *  1.3776677 *  2.2165067 *  3.7585570  

                6 C          7 C          8 C          9 C         10 C     

   1 C       2.2708961 *  3.4834599    2.2299569 *  2.3294074 *  5.0619619  
   2 C       4.0419325    4.8637104    3.3159682    4.0976849    4.4052563  
   3 C       4.0402837    4.8480441    2.2190804 *  3.3179463    5.0430262  
   4 C       3.2588698    4.1981055    1.3757306 *  2.2926740 *  5.3407032  
   5 C       1.3763562 *  2.3794182 *  2.1543057 *  1.3934204 *  4.7532234  
   6 C       0.0000000    1.3695009 *  3.2821412    2.3795827 *  3.9064490  
   7 C       1.3695009 *  0.0000000    3.8354550    2.7382362 *  3.4208218  
   8 C       3.2821412    3.8354550    0.0000000    1.3953109 *  5.2591100  
   9 C       2.3795827 *  2.7382362 *  1.3953109 *  0.0000000    4.9666308  
  10 C       3.9064490    3.4208218    5.2591100    4.9666308    0.0000000  
  11 C       2.7688158 *  2.4086639 *  4.9163996    4.3845991    1.4295012 *
  12 C       2.4229526 *  1.4139223 *  4.7762470    3.8983354    2.3469173 *
  13 C       3.5214277    2.2561395 *  5.2538077    4.3637355    2.6701261 *
  14 C       4.6236417    3.4807578    5.8645819    5.2121704    2.4573565 *
  15 C       4.6150389    3.7816892    5.6618639    5.2847683    1.3813643 *
  16 C       2.8051865 *  2.4190589 *  2.4554206 *  1.4071679 *  4.6191274  
  17 C       2.4403467 *  1.4152891 *  3.6126816    2.4347377 *  3.9740498  
  18 C       3.5362596    2.2643981 *  4.6585105    3.6638809    3.6711744  
  19 C       2.3564685 *  2.7460172 *  4.4431208    4.1165016    2.4104537 *
  20 C       1.3802040 *  2.4096078 *  3.7582228    3.3111976    3.5945725  
  21 C       4.3270474    4.1630221    4.8545296    4.9509539    1.4153266 *
  22 C       4.0581394    4.3382075    4.4020562    4.7158160    2.4242001 *
  23 C       3.2615069    3.8455221    4.3320031    4.4502003    2.8224828 *
  24 C       4.4165215    4.8770272    3.7381370    4.4397603    3.5793001  
  25 C       5.2091291    4.4949622    5.4210654    5.3115301    2.2517782 *
  26 C       4.9723998    4.6187014    4.7893568    4.9877135    2.2710503 *
  27 C       5.2267257    4.0835560    5.7659313    5.1955502    3.4517099  
  28 C       3.3033733    4.2675631    3.7679665    4.1292440    4.0759902  
  29 C       2.3029809 *  3.5254401    3.3453270    3.3705227    4.4406693  
  30 C       5.5054043    4.6113689    5.4305484    5.2018039    3.3201475  
  31 C       5.1806130    4.4588206    4.4121864    4.3249032    3.9039828  
  32 C       4.9585954    4.5990995    3.5543902    3.8788032    3.9823134  
  33 C       5.0101489    4.8592113    3.8878063    4.4024634    3.4102961  
  34 C       4.7535992    4.9950741    3.2984362    4.1302826    3.9163984  
  35 C       4.6560273    3.8088383    4.0926646    3.6495604    4.3354601  
  36 C       4.6515296    3.5019300    4.9983474    4.2645675    4.0571264  
  37 C       4.1167611    4.3812774    1.3784610 *  2.3912976 *  4.9823691  
  38 C       4.3617764    4.1852387    2.3688007 *  2.7322629 *  4.6206752  
  39 C       3.9577776    3.4561526    2.8024666 *  2.4227984 *  4.6228150  
  40 C       4.4566581    4.9081417    2.1857178 *  3.3238822    4.7844648  

               11 C         12 C         13 C         14 C         15 C     

   1 C       4.2703435    4.4159771    5.4111737    6.2530638    5.9167847  
   2 C       4.2920594    5.1087293    5.9626545    6.2681732    5.3935679  
   3 C       4.8995789    5.3840452    6.0934836    6.4718992    5.7971812  
   4 C       4.8832130    5.0582858    5.8225085    6.4606684    6.0460454  
   5 C       3.8611780    3.5700346    4.4409720    5.4363303    5.3856061  
   6 C       2.7688158 *  2.4229526 *  3.5214277    4.6236417    4.6150389  
   7 C       2.4086639 *  1.4139223 *  2.2561395 *  3.4807578    3.7816892  
   8 C       4.9163996    4.7762470    5.2538077    5.8645819    5.6618639  
   9 C       4.3845991    3.8983354    4.3637355    5.2121704    5.2847683  
  10 C       1.4295012 *  2.3469173 *  2.6701261 *  2.4573565 *  1.3813643 *
  11 C       0.0000000    1.4291215 *  2.4529519 *  2.9570338 *  2.4588310 *
  12 C       1.4291215 *  0.0000000    1.3789041 *  2.4564665 *  2.6756809 *
  13 C       2.4529519 *  1.3789041 *  0.0000000    1.3644006 *  2.2326507 *
  14 C       2.9570338 *  2.4564665 *  1.3644006 *  0.0000000    1.3706207 *
  15 C       2.4588310 *  2.6756809 *  2.2326507 *  1.3706207 *  0.0000000  
  16 C       4.2041744    3.3994847    3.4388374    4.2337753    4.5848057  
  17 C       3.3871474    2.2512424 *  2.2321604 *  3.3032277    3.8897440  
  18 C       3.4408688    2.2440076 *  1.3795656 *  2.2055051 *  3.1464981  
  19 C       1.4075895 *  2.4422082 *  3.6648338    4.2695069    3.6462721  
  20 C       2.4517968 *  2.8387648 *  4.1235632    5.0156158    4.6490626  
  21 C       2.4302535 *  3.4409925    3.7912719    3.4776945    2.2354348 *
  22 C       2.8012331 *  3.9414438    4.6382400    4.6280857    3.5059417  
  23 C       2.4706931 *  3.6295779    4.6730356    5.0196302    4.1071319  
  24 C       3.9048853    4.8109687    5.4365408    5.4574275    4.4317217  
  25 C       3.4551143    3.6896675    3.1662362    2.2168417 *  1.3657220 *
  26 C       3.4204823    4.0131887    3.9271868    3.3232899    2.2257032 *
  27 C       4.0538467    3.4400031    2.2281730 *  1.3772245 *  2.2387904 *
  28 C       3.5886014    4.4797412    5.5685503    6.0630854    5.2603286  
  29 C       3.5739120    4.0923814    5.2773720    6.0540945    5.5340660  
  30 C       4.2463553    4.0259842    3.1373022    2.2049728 *  2.2026680 *
  31 C       4.5951514    4.2898708    3.5942472    3.1185499    3.1313876  
  32 C       4.6282127    4.6102253    4.3077127    4.0166000    3.6460287  
  33 C       4.2332189    4.6605860    4.6321212    4.2560405    3.4276988  
  34 C       4.4283340    5.0253904    5.3453942    5.2426051    4.3609229  
  35 C       4.6368802    3.9396756    3.1828122    3.1557302    3.6248369  
  36 C       4.2762584    3.3473990    2.2464531 *  2.2337079 *  3.1601377  
  37 C       5.0270047    5.0099749    5.2441629    5.5359378    5.2030599  
  38 C       4.8605059    4.6323486    4.5100249    4.6299845    4.4814355  
  39 C       4.6529306    4.0193474    3.7017983    4.0383977    4.3049560  
  40 C       4.9545472    5.3202076    5.7286486    5.8938430    5.2451688  

               16 C         17 C         18 C         19 C         20 C     

   1 C       3.5749605    4.0674219    5.2492318    3.2903546    2.1897104 *
   2 C       4.9479933    5.4117020    6.1328212    3.2950847    3.2700648  
   3 C       4.2973423    5.0954763    5.9482893    4.0537106    3.7001636  
   4 C       3.5413829    4.4143191    5.5007624    4.0441117    3.2637031  
   5 C       2.4494348 *  2.8188079 *  4.1044829    3.2773287    2.1645185 *
   6 C       2.8051865 *  2.4403467 *  3.5362596    2.3564685 *  1.3802040 *
   7 C       2.4190589 *  1.4152891 *  2.2643981 *  2.7460172 *  2.4096078 *
   8 C       2.4554206 *  3.6126816    4.6585105    4.4431208    3.7582228  
   9 C       1.4071679 *  2.4347377 *  3.6638809    4.1165016    3.3111976  
  10 C       4.6191274    3.9740498    3.6711744    2.4104537 *  3.5945725  
  11 C       4.2041744    3.3871474    3.4408688    1.4075895 *  2.4517968 *
  12 C       3.3994847    2.2512424 *  2.2440076 *  2.4422082 *  2.8387648 *
  13 C       3.4388374    2.2321604 *  1.3795656 *  3.6648338    4.1235632  
  14 C       4.2337753    3.3032277    2.2055051 *  4.2695069    5.0156158  
  15 C       4.5848057    3.8897440    3.1464981    3.6462721    4.6490626  
  16 C       0.0000000    1.4344638 *  2.4593624 *  4.3988123    3.9116811  
  17 C       1.4344638 *  0.0000000    1.3803454 *  3.9025066    3.6061495  
  18 C       2.4593624 *  1.3803454 *  0.0000000    4.3784329    4.4833371  
  19 C       4.3988123    3.9025066    4.3784329    0.0000000    1.3943650 *
  20 C       3.9116811    3.6061495    4.4833371    1.3943650 *  0.0000000  
  21 C       4.8312045    4.5955275    4.4859763    2.7285369 *  3.8279751  
  22 C       4.9912722    4.9614456    5.2114968    2.3520246 *  3.2538736  
  23 C       4.9383182    4.7872037    5.2810058    1.3906905 *  2.1453780 *
  24 C       4.9268307    5.2833745    5.7073935    3.2953454    3.7456641  
  25 C       4.6127946    4.3076725    3.6186269    4.3665656    5.2685625  
  26 C       4.6430954    4.6173803    4.3219869    3.8999325    4.7842424  
  27 C       4.0290976    3.4178568    2.2100220 *  5.2178799    5.7990120  
  28 C       4.9819922    5.1396601    5.9156150    2.3211271 *  2.2082594 *
  29 C       4.3539688    4.4747722    5.4721232    2.3160729 *  1.3838817 *
  30 C       4.2291761    4.0091748    3.1288407    5.2159505    5.8822300  
  31 C       3.4055760    3.6397802    3.1305459    5.2938166    5.6849322  
  32 C       3.3954938    3.9866579    3.9157002    4.9714681    5.2751840  
  33 C       4.2334046    4.6532607    4.6355780    4.3992693    4.9375483  
  34 C       4.4215501    5.0153125    5.3481385    4.1341501    4.4668156  
  35 C       2.4489245 *  2.6780288 *  2.2460567 *  5.3412270    5.4655111  
  36 C       2.9471919 *  2.4546640 *  1.3733920 *  5.2572195    5.5018924  
  37 C       2.8317342 *  3.9754356    4.6783428    4.7552993    4.4543227  
  38 C       2.4294366 *  3.4513007    3.8150287    4.9821383    4.8964637  
  39 C       1.4395961 *  2.3719307 *  2.7012042 *  5.0072023    4.8276793  
  40 C       3.9262689    4.8321926    5.4660572    4.4692456    4.3608468  

               21 C         22 C         23 C         24 C         25 C     

   1 C       4.8265811    4.0061441    3.2568239    3.6921719    6.1001039  
   2 C       3.4762845    2.2516790 *  2.1886667 *  1.3869532 *  5.2448392  
   3 C       4.1842368    3.2348653    3.2668982    2.1679669 *  5.4893255  
   4 C       4.8109479    3.9984210    3.6835097    3.2582652    5.9177510  
   5 C       4.8343739    4.3787363    3.7245738    4.2997454    5.6761378  
   6 C       4.3270474    4.0581394    3.2615069    4.4165215    5.2091291  
   7 C       4.1630221    4.3382075    3.8455221    4.8770272    4.4949622  
   8 C       4.8545296    4.4020562    4.3320031    3.7381370    5.4210654  
   9 C       4.9509539    4.7158160    4.4502003    4.4397603    5.3115301  
  10 C       1.4153266 *  2.4242001 *  2.8224828 *  3.5793001    2.2517782 *
  11 C       2.4302535 *  2.8012331 *  2.4706931 *  3.9048853    3.4551143  
  12 C       3.4409925    3.9414438    3.6295779    4.8109687    3.6896675  
  13 C       3.7912719    4.6382400    4.6730356    5.4365408    3.1662362  
  14 C       3.4776945    4.6280857    5.0196302    5.4574275    2.2168417 *
  15 C       2.2354348 *  3.5059417    4.1071319    4.4317217    1.3657220 *
  16 C       4.8312045    4.9912722    4.9383182    4.9268307    4.6127946  
  17 C       4.5955275    4.9614456    4.7872037    5.2833745    4.3076725  
  18 C       4.4859763    5.2114968    5.2810058    5.7073935    3.6186269  
  19 C       2.7285369 *  2.3520246 *  1.3906905 *  3.2953454    4.3665656  
  20 C       3.8279751    3.2538736    2.1453780 *  3.7456641    5.2685625  
  21 C       0.0000000    1.3710359 *  2.4026556 *  2.3864400 *  2.2522095 *
  22 C       1.3710359 *  0.0000000    1.3812633 *  1.3736062 *  3.5242129  
  23 C       2.4026556 *  1.3812633 *  0.0000000    2.1836288 *  4.4743589  
  24 C       2.3864400 *  1.3736062 *  2.1836288 *  0.0000000    4.1021733  
  25 C       2.2522095 *  3.5242129    4.4743589    4.1021733    0.0000000  
  26 C       1.4155535 *  2.4309729 *  3.6041667    2.8138099 *  1.3831616 *
  27 C       4.0957870    5.2393599    5.8089126    5.7890438    2.2488493 *
  28 C       3.5177801    2.2938223 *  1.3845713 *  2.2568440 *  5.4651596  
  29 C       4.2415339    3.2809946    2.1977893 *  3.3120622    5.8928977  
  30 C       3.4725498    4.6210100    5.4704078    4.9883378    1.3661706 *
  31 C       3.7836005    4.6266211    5.4340268    4.6424202    2.2431839 *
  32 C       3.4197595    3.9178124    4.7994495    3.5880465    2.6754357 *
  33 C       2.4193567 *  2.7903555 *  3.9116166    2.4410513 *  2.4657216 *
  34 C       2.7524785 *  2.3771515 *  3.3272993    1.3937101 *  3.6741175  
  35 C       4.5121609    5.2320950    5.7416368    5.2767435    3.1939930  
  36 C       4.6450007    5.5436962    5.9278306    5.9041040    3.1718350  
  37 C       4.3515783    4.0815313    4.4486637    3.2681898    4.6547089  
  38 C       4.1811933    4.3543035    4.9032893    3.8422114    3.8154699  
  39 C       4.6162488    4.9771786    5.3116425    4.7804533    3.9347747  
  40 C       3.8403164    3.2753639    3.7790477    2.1596214 *  4.6632625  

               26 C         27 C         28 C         29 C         30 C     

   1 C       5.3825248    6.6305761    2.3765284 *  1.3848832 *  6.4819751  
   2 C       4.0620827    6.6545352    1.3838829 *  2.3793943 *  6.0200745  
   3 C       4.3999788    6.6139074    2.4071370 *  2.7736638 *  5.9757441  
   4 C       5.0651764    6.5997068    2.7656540 *  2.4000278 *  6.2146398  
   5 C       5.2589221    5.7584691    3.3061199    2.2434901 *  5.8438934  
   6 C       4.9723998    5.2267257    3.3033733    2.3029809 *  5.5054043  
   7 C       4.6187014    4.0835560    4.2675631    3.5254401    4.6113689  
   8 C       4.7893568    5.7659313    3.7679665    3.3453270    5.4305484  
   9 C       4.9877135    5.1955502    4.1292440    3.3705227    5.2018039  
  10 C       2.2710503 *  3.4517099    4.0759902    4.4406693    3.3201475  
  11 C       3.4204823    4.0538467    3.5886014    3.5739120    4.2463553  
  12 C       4.0131887    3.4400031    4.4797412    4.0923814    4.0259842  
  13 C       3.9271868    2.2281730 *  5.5685503    5.2773720    3.1373022  
  14 C       3.3232899    1.3772245 *  6.0630854    6.0540945    2.2049728 *
  15 C       2.2257032 *  2.2387904 *  5.2603286    5.5340660    2.2026680 *
  16 C       4.6430954    4.0290976    4.9819922    4.3539688    4.2291761  
  17 C       4.6173803    3.4178568    5.1396601    4.4747722    4.0091748  
  18 C       4.3219869    2.2100220 *  5.9156150    5.4721232    3.1288407  
  19 C       3.8999325    5.2178799    2.3211271 *  2.3160729 *  5.2159505  
  20 C       4.7842424    5.7990120    2.2082594 *  1.3838817 *  5.8822300  
  21 C       1.4155535 *  4.0957870    3.5177801    4.2415339    3.4725498  
  22 C       2.4309729 *  5.2393599    2.2938223 *  3.2809946    4.6210100  
  23 C       3.6041667    5.8089126    1.3845713 *  2.1977893 *  5.4704078  
  24 C       2.8138099 *  5.7890438    2.2568440 *  3.3120622    4.9883378  
  25 C       1.3831616 *  2.2488493 *  5.4651596    5.8928977    1.3661706 *
  26 C       0.0000000    3.4576986    4.4712051    5.1227482    2.4525163 *
  27 C       3.4576986    0.0000000    6.6957165    6.6830689    1.3895574 *
  28 C       4.4712051    6.6957165    0.0000000    1.3691256 *  6.3096900  
  29 C       5.1227482    6.6830689    1.3691256 *  0.0000000    6.5347306  
  30 C       2.4525163 *  1.3895574 *  6.3096900    6.5347306    0.0000000  
  31 C       2.6854227 *  2.2218464 *  5.9953295    6.1347136    1.3624144 *
  32 C       2.3489685 *  3.4420329    5.1435625    5.4256903    2.4447214 *
  33 C       1.4349342 *  4.0693136    4.3513791    4.9662175    2.9552959 *
  34 C       2.4414419 *  5.2368990    3.3802065    4.1285707    4.2697943  
  35 C       3.7147734    2.2401370 *  6.1915826    6.0225245    2.2315690 *
  36 C       4.0628672    1.3814487 *  6.5847250    6.3370573    2.2244511 *
  37 C       3.9485940    5.2491251    4.1175668    4.1148728    4.6285447  
  38 C       3.4602143    4.0991557    4.9303441    4.9188651    3.4827179  
  39 C       4.0157500    3.4442513    5.4666097    5.1648129    3.3182884  
  40 C       3.6128453    5.7988216    3.3659653    3.7825930    4.9951226  

               31 C         32 C         33 C         34 C         35 C     

   1 C       5.8235299    5.0661768    4.9174456    4.0800058    5.5333135  
   2 C       5.5267738    4.4421815    3.5730380    2.3361910 *  5.8939847  
   3 C       5.1946762    4.0141766    3.5243729    2.2775556 *  5.4087693  
   4 C       5.3571284    4.3744521    4.2669745    3.2956317    5.2129728  
   5 C       5.2031642    4.7358840    4.9081408    4.4374287    4.6445777  
   6 C       5.1806130    4.9585954    5.0101489    4.7535992    4.6560273  
   7 C       4.4588206    4.5990995    4.8592113    4.9950741    3.8088383  
   8 C       4.4121864    3.5543902    3.8878063    3.2984362    4.0926646  
   9 C       4.3249032    3.8788032    4.4024634    4.1302826    3.6495604  
  10 C       3.9039828    3.9823134    3.4102961    3.9163984    4.3354601  
  11 C       4.5951514    4.6282127    4.2332189    4.4283340    4.6368802  
  12 C       4.2898708    4.6102253    4.6605860    5.0253904    3.9396756  
  13 C       3.5942472    4.3077127    4.6321212    5.3453942    3.1828122  
  14 C       3.1185499    4.0166000    4.2560405    5.2426051    3.1557302  
  15 C       3.1313876    3.6460287    3.4276988    4.3609229    3.6248369  
  16 C       3.4055760    3.3954938    4.2334046    4.4215501    2.4489245 *
  17 C       3.6397802    3.9866579    4.6532607    5.0153125    2.6780288 *
  18 C       3.1305459    3.9157002    4.6355780    5.3481385    2.2460567 *
  19 C       5.2938166    4.9714681    4.3992693    4.1341501    5.3412270  
  20 C       5.6849322    5.2751840    4.9375483    4.4668156    5.4655111  
  21 C       3.7836005    3.4197595    2.4193567 *  2.7524785 *  4.5121609  
  22 C       4.6266211    3.9178124    2.7903555 *  2.3771515 *  5.2320950  
  23 C       5.4340268    4.7994495    3.9116166    3.3272993    5.7416368  
  24 C       4.6424202    3.5880465    2.4410513 *  1.3937101 *  5.2767435  
  25 C       2.2431839 *  2.6754357 *  2.4657216 *  3.6741175    3.1939930  
  26 C       2.6854227 *  2.3489685 *  1.4349342 *  2.4414419 *  3.7147734  
  27 C       2.2218464 *  3.4420329    4.0693136    5.2368990    2.2401370 *
  28 C       5.9953295    5.1435625    4.3513791    3.3802065    6.1915826  
  29 C       6.1347136    5.4256903    4.9662175    4.1285707    6.0225245  
  30 C       1.3624144 *  2.4447214 *  2.9552959 *  4.2697943    2.2315690 *
  31 C       0.0000000    1.3850687 *  2.4752851 *  3.6673254    1.3719453 *
  32 C       1.3850687 *  0.0000000    1.4378370 *  2.4263216 *  2.2607828 *
  33 C       2.4752851 *  1.4378370 *  0.0000000    1.4076318 *  3.4839087  
  34 C       3.6673254    2.4263216 *  1.4076318 *  0.0000000    4.4035958  
  35 C       1.3719453 *  2.2607828 *  3.4839087    4.4035958    0.0000000  
  36 C       2.2027256 *  3.3320625    4.2855686    5.2661292    1.3685218 *
  37 C       3.5137613    2.4204958 *  2.8023439 *  2.3702776 *  3.5452295  
  38 C       2.2463293 *  1.4219778 *  2.4499873 *  2.7617674 *  2.2659980 *
  39 C       2.2177079 *  2.2608501 *  3.4278960    3.9223805    1.3813741 *
  40 C       4.0970495    2.8045874 *  2.4486824 *  1.3878124 *  4.4790797  

               36 C         37 C         38 C         39 C         40 C     

   1 C       6.0351214    3.3040571    4.2338495    4.4475166    3.3153390  
   2 C       6.5417504    3.3150523    4.2629053    5.1178649    2.2538692 *
   3 C       6.2631475    2.2634095 *  3.4728119    4.4117617    1.3776677 *
   4 C       5.9988264    2.2614067 *  3.4585037    4.0289028    2.2165067 *
   5 C       4.9999075    3.2801065    3.8202567    3.6010430    3.7585570  
   6 C       4.6515296    4.1167611    4.3617764    3.9577776    4.4566581  
   7 C       3.5019300    4.3812774    4.1852387    3.4561526    4.9081417  
   8 C       4.9983474    1.3784610 *  2.3688007 *  2.8024666 *  2.1857178 *
   9 C       4.2645675    2.3912976 *  2.7322629 *  2.4227984 *  3.3238822  
  10 C       4.0571264    4.9823691    4.6206752    4.6228150    4.7844648  
  11 C       4.2762584    5.0270047    4.8605059    4.6529306    4.9545472  
  12 C       3.3473990    5.0099749    4.6323486    4.0193474    5.3202076  
  13 C       2.2464531 *  5.2441629    4.5100249    3.7017983    5.7286486  
  14 C       2.2337079 *  5.5359378    4.6299845    4.0383977    5.8938430  
  15 C       3.1601377    5.2030599    4.4814355    4.3049560    5.2451688  
  16 C       2.9471919 *  2.8317342 *  2.4294366 *  1.4395961 *  3.9262689  
  17 C       2.4546640 *  3.9754356    3.4513007    2.3719307 *  4.8321926  
  18 C       1.3733920 *  4.6783428    3.8150287    2.7012042 *  5.4660572  
  19 C       5.2572195    4.7552993    4.9821383    5.0072023    4.4692456  
  20 C       5.5018924    4.4543227    4.8964637    4.8276793    4.3608468  
  21 C       4.6450007    4.3515783    4.1811933    4.6162488    3.8403164  
  22 C       5.5436962    4.0815313    4.3543035    4.9771786    3.2753639  
  23 C       5.9278306    4.4486637    4.9032893    5.3116425    3.7790477  
  24 C       5.9041040    3.2681898    3.8422114    4.7804533    2.1596214 *
  25 C       3.1718350    4.6547089    3.8154699    3.9347747    4.6632625  
  26 C       4.0628672    3.9485940    3.4602143    4.0157500    3.6128453  
  27 C       1.3814487 *  5.2491251    4.0991557    3.4442513    5.7988216  
  28 C       6.5847250    4.1175668    4.9303441    5.4666097    3.3659653  
  29 C       6.3370573    4.1148728    4.9188651    5.1648129    3.7825930  
  30 C       2.2244511 *  4.6285447    3.4827179    3.3182884    4.9951226  
  31 C       2.2027256 *  3.5137613    2.2463293 *  2.2177079 *  4.0970495  
  32 C       3.3320625    2.4204958 *  1.4219778 *  2.2608501 *  2.8045874 *
  33 C       4.2855686    2.8023439 *  2.4499873 *  3.4278960    2.4486824 *
  34 C       5.2661292    2.3702776 *  2.7617674 *  3.9223805    1.3878124 *
  35 C       1.3685218 *  3.5452295    2.2659980 *  1.3813741 *  4.4790797  
  36 C       0.0000000    4.6613517    3.4985957    2.4655950 *  5.4923811  
  37 C       4.6613517    0.0000000    1.3732906 *  2.4462045 *  1.3759986 *
  38 C       3.4985957    1.3732906 *  0.0000000    1.4140972 *  2.3994185 *
  39 C       2.4655950 *  2.4462045 *  1.4140972 *  0.0000000    3.6009054  
  40 C       5.4923811    1.3759986 *  2.3994185 *  3.6009054    0.0000000  

  * ... LESS THAN  3.000


 TOTAL NUMBER OF BASIS SET SHELLS             =   40
 NUMBER OF CARTESIAN GAUSSIAN BASIS FUNCTIONS =  160
 NUMBER OF ELECTRONS                          =  160
 CHARGE OF MOLECULE                           =    0
 SPIN MULTIPLICITY                            =    1
 NUMBER OF OCCUPIED ORBITALS (ALPHA)          =   80
 NUMBER OF OCCUPIED ORBITALS (BETA )          =   80
 TOTAL NUMBER OF ATOMS                        =   40
 THE NUCLEAR REPULSION ENERGY IS     4520.5635281154

 THE PARAMETERS USED IN THIS CALCULATION ARE DESCRIBED IN:

  C: (PM3): J. J. P. STEWART, J. COMP. CHEM. 10, 209 (1989).                    

 THERE ARE   40 HEAVY AND    0 LIGHT ATOMS,
 YIELDING A TOTAL OF     78000 MOPAC 2E- INTEGRALS.

     $CONTRL OPTIONS
     ---------------
 SCFTYP=RHF          RUNTYP=OPTIMIZE     EXETYP=RUN     
 MPLEVL=       0     CITYP =NONE         CCTYP =NONE         VBTYP =NONE    
 DFTTYP=NONE         TDDFT =NONE    
 MULT  =       1     ICHARG=       0     NZVAR =       0     COORD =UNIQUE  
 PP    =NONE         RELWFN=NONE         LOCAL =NONE         NUMGRD=       F
 ISPHER=      -1     NOSYM =       0     MAXIT =     200     UNITS =ANGS    
 PLTORB=       F     MOLPLT=       F     AIMPAC=       F     FRIEND=        
 NPRINT=       7     IREST =       0     GEOM  =INPUT   
 NORMF =       0     NORMP =       0     ITOL  =      20     ICUT  =       9
 INTTYP=BEST         GRDTYP=BEST         QMTTOL= 1.0E-06

     $SYSTEM OPTIONS
     ---------------
  REPLICATED MEMORY=    10000000 WORDS (ON EVERY NODE).
 DISTRIBUTED MEMDDI=           0 MILLION WORDS IN AGGREGATE,
 MEMDDI DISTRIBUTED OVER   2 PROCESSORS IS           0 WORDS/PROCESSOR.
 TOTAL MEMORY REQUESTED ON EACH PROCESSOR=    10000000 WORDS.
 TIMLIM=      525600.00 MINUTES, OR     365.0 DAYS.
 PARALL= T  BALTYP=  DLB     KDIAG=    0  COREFL= F
 MXSEQ2=     300 MXSEQ3=     150  mem10=         0  mem22=         0

          ----------------
          PROPERTIES INPUT
          ----------------

     MOMENTS            FIELD           POTENTIAL          DENSITY
 IEMOM =       1   IEFLD =       0   IEPOT =       0   IEDEN =       0
 WHERE =COMASS     WHERE =NUCLEI     WHERE =NUCLEI     WHERE =NUCLEI  
 OUTPUT=BOTH       OUTPUT=BOTH       OUTPUT=BOTH       OUTPUT=BOTH    
 IEMINT=       0   IEFINT=       0                     IEDINT=       0
                                                       MORB  =       0
          EXTRAPOLATION IN EFFECT
          SOSCF IN EFFECT
 ORBITAL PRINTING OPTION: NPREO=     1   160     2     1

     -------------------------------
     INTEGRAL TRANSFORMATION OPTIONS
     -------------------------------
     NWORD  =            0
     CUTTRF = 1.0E-09     MPTRAN =       0
     DIRTRF =       T     AOINTS =DUP     

          ----------------------
          INTEGRAL INPUT OPTIONS
          ----------------------
 NOPK  =       1 NORDER=       0 SCHWRZ=       T

     ------------------------------------------
     THE POINT GROUP IS C1 , NAXIS= 0, ORDER= 1
     ------------------------------------------

     DIMENSIONS OF THE SYMMETRY SUBSPACES ARE
 A   =  160

 ..... DONE SETTING UP THE RUN .....
 CPU     0: STEP CPU TIME=     0.00 TOTAL CPU TIME=          0.0 (      0.0 MIN)
 TOTAL WALL CLOCK TIME=          0.0 SECONDS, CPU UTILIZATION IS     0.00%


          -----------------------------
          STATIONARY POINT LOCATION RUN
          -----------------------------

 OBTAINING INITIAL HESSIAN, HESS=GUESS   
 CARTESIAN COORDINATE OPTIMIZATION USING BADGER'S RULE FORCE CONSTANT GUESS

          PARAMETERS CONTROLLING GEOMETRY SEARCH ARE
          METHOD =QA                  UPHESS =BFGS    
          NNEG   =         0          NFRZ   =         0
          NSTEP  =       100          IFOLOW =         1
          HESS   =GUESS               RESTAR =         F
          IHREP  =         0          HSSEND =         F
          NPRT   =         0          NPUN   =         0
          OPTTOL = 1.000E-03          RMIN   = 1.500E-03
          RMAX   = 1.000E-01          RLIM   = 7.000E-02
          DXMAX  = 3.000E-01          PURIFY =         F
          MOVIE  =         F          TRUPD  =         T
          TRMAX  = 5.000E-01          TRMIN  = 5.000E-02
          ITBMAT =         5          STPT   =         F
          STSTEP = 1.000E-02          PROJCT=          T

 BEGINNING GEOMETRY SEARCH POINT NSERCH=   0 ...

 COORDINATES OF ALL ATOMS ARE (ANGS)
   ATOM   CHARGE       X              Y              Z
 ------------------------------------------------------------
 C           6.0  -2.9084000000   1.1738000000  -0.6812000000
 C           6.0  -2.9244000000  -1.2068000000   0.6557000000
 C           6.0  -2.8847000000  -0.0283000000   1.3727000000
 C           6.0  -2.8756000000   1.1731000000   0.6872000000
 C           6.0  -1.7663000000   1.8640000000  -1.0526000000
 C           6.0  -1.0863000000   1.1829000000  -2.0365000000
 C           6.0   0.2820000000   1.2215000000  -2.0789000000
 C           6.0  -1.7621000000   1.8666000000   1.1017000000
 C           6.0  -1.0416000000   2.3770000000   0.0213000000
 C           6.0   1.0162000000  -1.9884000000  -1.1518000000
 C           6.0   0.3445000000  -1.1859000000  -2.1256000000
 C           6.0   1.0371000000   0.0497000000  -2.3153000000
 C           6.0   2.3035000000   0.2563000000  -1.8104000000
 C           6.0   3.0637000000  -0.6304000000  -1.1051000000
 C           6.0   2.2784000000  -1.6732000000  -0.6874000000
 C           6.0   0.3644000000   2.4337000000   0.0129000000
 C           6.0   1.0476000000   1.9855000000  -1.1661000000
 C           6.0   2.3163000000   1.4446000000  -1.1097000000
 C           6.0  -1.0616000000  -1.1733000000  -2.0621000000
 C           6.0  -1.7973000000   0.0068000000  -2.1639000000
 C           6.0   0.2714000000  -2.3965000000  -0.0196000000
 C           6.0  -1.0984000000  -2.3383000000  -0.0192000000
 C           6.0  -1.8030000000  -1.8600000000  -1.1067000000
 C           6.0  -1.7822000000  -1.8714000000   1.0768000000
 C           6.0   2.2970000000  -1.7016000000   0.6779000000
 C           6.0   1.0270000000  -2.0268000000   1.1189000000
 C           6.0   3.5843000000   0.0118000000  -0.0036000000
 C           6.0  -2.9606000000  -1.2017000000  -0.7277000000
 C           6.0  -2.9512000000  -0.0091000000  -1.4001000000
 C           6.0   3.0529000000  -0.6447000000   1.0998000000
 C           6.0   2.2862000000   0.2500000000   1.7838000000
 C           6.0   1.0220000000   0.0067000000   2.2947000000
 C           6.0   0.3403000000  -1.2453000000   2.1072000000
 C           6.0  -1.0664000000  -1.2082000000   2.0719000000
 C           6.0   2.3101000000   1.4593000000   1.1363000000
 C           6.0   3.0846000000   1.2995000000   0.0194000000
 C           6.0  -1.0942000000   1.1619000000   2.0802000000
 C           6.0   0.2782000000   1.2039000000   2.1063000000
 C           6.0   1.0358000000   1.9880000000   1.2058000000
 C           6.0  -1.7807000000  -0.0249000000   2.1968000000

          ********************
          1 ELECTRON INTEGRALS
          ********************

          **************************
          1 AND 2 ELECTRON INTEGRALS
          **************************

 MOPAC ONE- AND TWO-ELECTRON INTEGRALS REQUIRE    103760 WORDS.
 ...... END OF ONE- AND TWO-ELECTRON INTEGRALS......
 CPU     0: STEP CPU TIME=     0.00 TOTAL CPU TIME=          0.0 (      0.0 MIN)
 TOTAL WALL CLOCK TIME=          0.0 SECONDS, CPU UTILIZATION IS     0.00%
 ...... END OF ONE-ELECTRON INTEGRALS ......
 CPU     0: STEP CPU TIME=     0.00 TOTAL CPU TIME=          0.0 (      0.0 MIN)
 TOTAL WALL CLOCK TIME=          0.0 SECONDS, CPU UTILIZATION IS     0.00%

          -------------
          GUESS OPTIONS
          -------------
          GUESS =HUCKEL            NORB  =       0          NORDER=       0
          MIX   =       F          PRTMO =       F          PUNMO =       F
          TOLZ  = 1.0E-08          TOLE  = 1.0E-05
          SYMDEN=       F          PURIFY=       F

 INITIAL GUESS ORBITALS GENERATED BY HUCKEL   ROUTINE.

 SYMMETRIES FOR INITIAL GUESS ORBITALS FOLLOW.   BOTH SET(S).
    80 ORBITALS ARE OCCUPIED (    0 CORE ORBITALS).
     1=A        2=A        3=A        4=A        5=A        6=A        7=A   
     8=A        9=A       10=A       11=A       12=A       13=A       14=A   
    15=A       16=A       17=A       18=A       19=A       20=A       21=A   
    22=A       23=A       24=A       25=A       26=A       27=A       28=A   
    29=A       30=A       31=A       32=A       33=A       34=A       35=A   
    36=A       37=A       38=A       39=A       40=A       41=A       42=A   
    43=A       44=A       45=A       46=A       47=A       48=A       49=A   
    50=A       51=A       52=A       53=A       54=A       55=A       56=A   
    57=A       58=A       59=A       60=A       61=A       62=A       63=A   
    64=A       65=A       66=A       67=A       68=A       69=A       70=A   
    71=A       72=A       73=A       74=A       75=A       76=A       77=A   
    78=A       79=A       80=A       81=A       82=A       83=A       84=A   
    85=A       86=A       87=A       88=A       89=A       90=A   
 ...... END OF INITIAL ORBITAL SELECTION ......
 CPU     0: STEP CPU TIME=     0.02 TOTAL CPU TIME=          0.0 (      0.0 MIN)
 TOTAL WALL CLOCK TIME=          0.0 SECONDS, CPU UTILIZATION IS    47.35%

          --------------------------
               R-PM3 SCF CALCULATION
          --------------------------

     NUCLEAR ENERGY =      1814.6459980369
     MAXIT =  200     NPUNCH=    2
     EXTRAP=T  DAMP=F  SHIFT=F  RSTRCT=F  DIIS=F  DEM=F  SOSCF=T
     DENSITY MATRIX CONV=  2.00E-05
     SOSCF WILL OPTIMIZE    6400 ORBITAL ROTATIONS, SOGTOL=   0.250
     MEMORY REQUIRED FOR RHF ITERS=    285680 WORDS.

                                                                                   NONZERO     BLOCKS
 ITER EX DEM     TOTAL ENERGY        E CHANGE  DENSITY CHANGE     ORB. GRAD      INTEGRALS    SKIPPED
   1  0  0     -171.2990096559  -171.2990096559   0.174816047   0.000000000              0          0
          ---------------START SECOND ORDER SCF---------------
   2  1  0     -172.4951245785    -1.1961149226   0.064570397   0.024014853              0          0
   3  2  0     -172.5957379019    -0.1006133234   0.033915037   0.013027003              0          0
   4  3  0     -172.6139626720    -0.0182247700   0.014239022   0.003852942              0          0
   5  4  0     -172.6161025689    -0.0021398969   0.005225450   0.001708714              0          0
   6  5  0     -172.6164068914    -0.0003043225   0.006435281   0.001102433              0          0
   7  6  0     -172.6166642156    -0.0002573243   0.012073420   0.000778589              0          0
   8  7  0     -172.6168759988    -0.0002117832   0.005565886   0.000385365              0          0
   9  8  0     -172.6169377639    -0.0000617651   0.007273442   0.000358679              0          0
  10  9  0     -172.6169936277    -0.0000558638   0.002023363   0.000210028              0          0
  11 10  0     -172.6170058715    -0.0000122438   0.002267714   0.000145721              0          0
  12 11  0     -172.6170140324    -0.0000081609   0.002730522   0.000129765              0          0
  13 12  0     -172.6170211926    -0.0000071601   0.004948971   0.000122907              0          0
  14 13  0     -172.6170305980    -0.0000094055   0.007682584   0.000162132              0          0
  15 14  0     -172.6170432195    -0.0000126214   0.013590072   0.000170876              0          0
  16 15  0     -172.6170637924    -0.0000205729   0.021530666   0.000233527              0          0
  17 16  0     -172.6170944416    -0.0000306492   0.021915370   0.000274274              0          0
  18 17  0     -172.6171309312    -0.0000364897   0.012501309   0.000287040              0          0
  19 18  0     -172.6171767936    -0.0000458624   0.007403530   0.000240239              0          0
  20 19  0     -172.6172087879    -0.0000319943   0.004121246   0.000196294              0          0
  21 20  0     -172.6172243712    -0.0000155833   0.002854195   0.000113525              0          0
  22 21  0     -172.6172321943    -0.0000078231   0.001435578   0.000109055              0          0
  23 22  0     -172.6172357147    -0.0000035204   0.004993581   0.000080663              0          0
  24 23  0     -172.6172368073    -0.0000010926   0.002501766   0.000122916              0          0
  25 24  0     -172.6172386106    -0.0000018032   0.000352502   0.000068176              0          0
  26 25  0     -172.6172392128    -0.0000006023   0.000691241   0.000026746              0          0
  27 26  0     -172.6172395377    -0.0000003249   0.000545491   0.000021564              0          0
  28 27  0     -172.6172396496    -0.0000001118   0.000511271   0.000020432              0          0
  29 28  0     -172.6172397464    -0.0000000969   0.000383826   0.000016584              0          0
  30 29  0     -172.6172398370    -0.0000000906   0.000447021   0.000018035              0          0
  31 30  0     -172.6172399717    -0.0000001346   0.000637961   0.000019750              0          0
  32 31  0     -172.6172401850    -0.0000002134   0.001384792   0.000022274              0          0
  33 32  0     -172.6172406408    -0.0000004557   0.004005075   0.000041035              0          0
  34 33  0     -172.6172419883    -0.0000013475   0.022305562   0.000083657              0          0
  35 34  0     -172.6172469767    -0.0000049884   0.002232443   0.000348766              0          0
  36 35  0     -172.6172566277    -0.0000096510   0.389656456   0.000324616              0          0
  37 36  0     -171.9765472449     0.6407093828   0.376496317   0.056578514              0          0
  38 37  0     -172.4757814586    -0.4992342137   0.257760630   0.048516174              0          0
  39 38  0     -172.5087186607    -0.0329372021   0.331695080   0.027497549              0          0
  40 39  0     -171.9337311457     0.5749875150   0.387941334   0.058595210              0          0
  41 40  0     -172.4600787175    -0.5263475718   0.333488361   0.034469816              0          0
  42 41  0     -172.2990800870     0.1609986306   0.288416928   0.039863552              0          0
  43 42  0     -172.5469355325    -0.2478554456   0.163498674   0.023570108              0          0
  44 43  0     -172.4291902122     0.1177453203   0.157350111   0.033653586              0          0
  45 44  0     -172.5948434470    -0.1656532347   0.144405432   0.011477214              0          0
  46 45  0     -172.5599992824     0.0348441646   0.124440319   0.026326656              0          0
  47 46  0     -172.6057628739    -0.0457635915   0.089851639   0.011154727              0          0
  48 47  0     -172.5820032298     0.0237596441   0.063492236   0.020670378              0          0
  49 48  0     -172.6148382435    -0.0328350137   0.024270318   0.001986350              0          0
  50 49  0     -172.6140341414     0.0008041021   0.013904053   0.006232684              0          0
  51 50  0     -172.6163495910    -0.0023154496   0.011474052   0.001844168              0          0
  52 51  0     -172.6168793332    -0.0005297422   0.019420432   0.001079784              0          0
  53 52  0     -172.6173745835    -0.0004952504   0.009887069   0.001095708              0          0
  54 53  0     -172.6176559973    -0.0002814137   0.006551271   0.000962801              0          0
  55 54  0     -172.6178348744    -0.0001788771   0.009021021   0.000577885              0          0
  56 55  0     -172.6179610257    -0.0001261513   0.007530266   0.000605202              0          0
  57 56  0     -172.6180354299    -0.0000744043   0.004054219   0.000354698              0          0
  58 57  0     -172.6180830376    -0.0000476077   0.005373651   0.000357168              0          0
  59 58  0     -172.6181278117    -0.0000447741   0.003937039   0.000379235              0          0
  60 59  0     -172.6181531554    -0.0000253437   0.004979441   0.000391067              0          0
  61 60  0     -172.6181790259    -0.0000258705   0.004571612   0.000313401              0          0
  62 61  0     -172.6182006259    -0.0000216000   0.005497182   0.000244247              0          0
  63 62  0     -172.6182255978    -0.0000249719   0.006864380   0.000208368              0          0
  64 63  0     -172.6182563478    -0.0000307500   0.010251553   0.000219811              0          0
  65 64  0     -172.6182956013    -0.0000392535   0.012202460   0.000255401              0          0
  66 65  0     -172.6183381157    -0.0000425144   0.011370504   0.000288099              0          0
  67 66  0     -172.6183766609    -0.0000385452   0.008294231   0.000260920              0          0
  68 67  0     -172.6184081518    -0.0000314909   0.006336627   0.000246142              0          0
  69 68  0     -172.6184313500    -0.0000231982   0.003512779   0.000216478              0          0
  70 69  0     -172.6184474833    -0.0000161333   0.002744220   0.000166385              0          0
  71 70  0     -172.6184570606    -0.0000095773   0.001443045   0.000109438              0          0
  72 71  0     -172.6184626993    -0.0000056387   0.001445089   0.000128920              0          0
  73 72  0     -172.6184662527    -0.0000035534   0.001042582   0.000099849              0          0
  74 73  0     -172.6184688963    -0.0000026436   0.001083885   0.000071103              0          0
  75 74  0     -172.6184708595    -0.0000019633   0.001353615   0.000050678              0          0
  76 75  0     -172.6184724011    -0.0000015416   0.000876340   0.000052837              0          0
  77 76  0     -172.6184737353    -0.0000013342   0.001256853   0.000059393              0          0
  78 77  0     -172.6184750701    -0.0000013348   0.001198793   0.000054679              0          0
  79 78  0     -172.6184765412    -0.0000014711   0.001247199   0.000045399              0          0
  80 79  0     -172.6184779711    -0.0000014299   0.001534049   0.000052030              0          0
  81 80  0     -172.6184796150    -0.0000016439   0.001909882   0.000064007              0          0
  82 81  0     -172.6184815791    -0.0000019641   0.002486142   0.000075317              0          0
  83 82  0     -172.6184838764    -0.0000022973   0.002788865   0.000072149              0          0
  84 83  0     -172.6184862448    -0.0000023684   0.002500943   0.000060910              0          0
  85 84  0     -172.6184882466    -0.0000020018   0.001841207   0.000056777              0          0
  86 85  0     -172.6184895539    -0.0000013073   0.000967542   0.000031245              0          0
  87 86  0     -172.6184902420    -0.0000006880   0.000518649   0.000019784              0          0
  88 87  0     -172.6184905450    -0.0000003031   0.000315120   0.000012720              0          0
  89 88  0     -172.6184906675    -0.0000001225   0.000195942   0.000009205              0          0
  90 89  0     -172.6184907134    -0.0000000459   0.000091105   0.000007242              0          0
  91 90  0     -172.6184907314    -0.0000000180   0.000055277   0.000005826              0          0
  92 91  0     -172.6184907395    -0.0000000081   0.000036088   0.000003175              0          0
  93 92  0     -172.6184907436    -0.0000000040   0.000028502   0.000001876              0          0

          ----------------
          ENERGY CONVERGED
          ----------------
     TIME TO FORM FOCK OPERATORS=       0.0 SECONDS (       0.0 SEC/ITER)
     FOCK TIME ON FIRST ITERATION=       0.0, LAST ITERATION=       0.0
     TIME TO SOLVE SCF EQUATIONS=       0.4 SECONDS (       0.0 SEC/ITER)

 FINAL R-PM3 ENERGY IS     -172.6184907436 AFTER  93 ITERATIONS

 HEAT OF FORMATION IS      1115.60391 KCAL/MOL
 

          ------------
          EIGENVECTORS
          ------------

                      1          2          3          4          5
                   -1.9360    -1.8161    -1.6653    -1.6619    -1.4830
                     A          A          A          A          A   
    1  C  1  S    0.178444  -0.188056   0.004145   0.167900   0.011034
    2  C  1  X    0.045401  -0.041016   0.001156   0.062485  -0.012925
    3  C  1  Y   -0.024239   0.029985   0.030140   0.014894  -0.054681
    4  C  1  Z    0.011384  -0.013381   0.056482  -0.008623  -0.053639
    5  C  2  S    0.173393  -0.182285   0.009447  -0.172642   0.083905
    6  C  2  X    0.043955  -0.039493   0.003112  -0.062632   0.010110
    7  C  2  Y    0.022151  -0.026757   0.030731   0.014585  -0.021118
    8  C  2  Z   -0.015425   0.019428   0.054037  -0.004162  -0.071671
    9  C  3  S    0.170439  -0.175735   0.157311  -0.085288  -0.094554
   10  C  3  X    0.041758  -0.035925   0.056283  -0.029487  -0.042729
   11  C  3  Y   -0.000383   0.000951   0.030317   0.054345  -0.043445
   12  C  3  Z   -0.027114   0.033384   0.012944  -0.005434  -0.025851
   13  C  4  S    0.173893  -0.179723   0.156025   0.084970  -0.131677
   14  C  4  X    0.042665  -0.036892   0.055605   0.031021  -0.053774
   15  C  4  Y   -0.022136   0.027016  -0.004991   0.034534  -0.014182
   16  C  4  Z   -0.015697   0.019767   0.034250  -0.043130  -0.031524
   17  C  5  S    0.174153  -0.141871   0.001276   0.262580  -0.057430
   18  C  5  X    0.004928   0.017307  -0.002022   0.026791  -0.020528
   19  C  5  Y   -0.040636   0.040060   0.030412  -0.042167  -0.023316
   20  C  5  Z    0.019585  -0.018837   0.057255   0.018820  -0.045881
   21  C  6  S    0.161597  -0.093706  -0.137646   0.239549  -0.006953
   22  C  6  X   -0.007403   0.037443  -0.001965   0.001476  -0.047695
   23  C  6  Y   -0.021277   0.016496   0.050656  -0.001305  -0.029105
   24  C  6  Z    0.034783  -0.025733  -0.000812   0.053556  -0.006501
   25  C  7  S    0.139856   0.030584  -0.129157   0.218845  -0.118684
   26  C  7  X   -0.002496   0.043913   0.003976  -0.009974  -0.027109
   27  C  7  Y   -0.015903  -0.004473   0.042397  -0.001052   0.019670
   28  C  7  Z    0.025441   0.008723  -0.000804   0.042675  -0.013209
   29  C  8  S    0.165280  -0.129400   0.232836   0.126601  -0.187043
   30  C  8  X    0.005521   0.016367   0.023630   0.012581   0.005950
   31  C  8  Y   -0.037799   0.035628  -0.054674   0.005499   0.041049
   32  C  8  Z   -0.022295   0.022458   0.007897  -0.056831   0.010581
   33  C  9  S    0.149639  -0.080485   0.132231   0.222802  -0.120357
   34  C  9  X   -0.007795   0.035269  -0.003237  -0.002763   0.027381
   35  C  9  Y   -0.038836   0.027309  -0.027953  -0.046109   0.028024
   36  C  9  Z   -0.001345   0.001781   0.045187  -0.026811  -0.008748
   37  C 10  S    0.134558   0.089750  -0.172307  -0.126336  -0.231373
   38  C 10  X   -0.003473   0.034044   0.018185   0.010189  -0.026109
   39  C 10  Y    0.024690   0.021713  -0.033099   0.004138  -0.036613
   40  C 10  Z    0.019611   0.019857  -0.001820  -0.050919  -0.032486
   41  C 11  S    0.130557   0.026785  -0.216557  -0.003874  -0.141542
   42  C 11  X   -0.006123   0.037512   0.018458   0.000792  -0.059616
   43  C 11  Y    0.014994   0.005203  -0.020907   0.042243  -0.013048
   44  C 11  Z    0.026192   0.009431  -0.034790  -0.024590  -0.032517
   45  C 12  S    0.135086   0.089775  -0.178362   0.119140  -0.186530
   46  C 12  X   -0.004173   0.033519   0.019498  -0.010103  -0.014232
   47  C 12  Y    0.004439   0.005289   0.012678   0.045902   0.009528
   48  C 12  Z    0.031675   0.029101  -0.030769   0.021715  -0.037987
   49  C 13  S    0.147840   0.195110  -0.122479   0.101338  -0.146596
   50  C 13  X   -0.014844   0.003381   0.029921  -0.028164   0.046295
   51  C 13  Y   -0.000124  -0.002147   0.014979   0.035894   0.031527
   52  C 13  Z    0.036644   0.060829  -0.008736   0.011145   0.002968
   53  C 14  S    0.147878   0.233858  -0.090087  -0.002571  -0.105313
   54  C 14  X   -0.032627  -0.041085   0.033154   0.001054   0.055821
   55  C 14  Y    0.017098   0.030910   0.001236   0.033111   0.029388
   56  C 14  Z    0.029373   0.053563   0.004532  -0.018952   0.021352
   57  C 15  S    0.149349   0.197690  -0.117752  -0.110182  -0.214948
   58  C 15  X   -0.013949   0.004737   0.027739   0.029625   0.055954
   59  C 15  Y    0.031229   0.052723  -0.015114   0.008284  -0.009789
   60  C 15  Z    0.018539   0.029569   0.010966  -0.037107   0.004587
   61  C 16  S    0.126072   0.033779   0.107362   0.189214  -0.003080
   62  C 16  X   -0.005285   0.036017  -0.011273  -0.017209   0.046301
   63  C 16  Y   -0.029218  -0.011893  -0.019936  -0.035379  -0.004360
   64  C 16  Z   -0.000389   0.000943   0.042060  -0.023165   0.026912
   65  C 17  S    0.133826   0.093521  -0.022582   0.212620  -0.052249
   66  C 17  X   -0.003058   0.033657  -0.002654  -0.022172   0.020709
   67  C 17  Y   -0.029732  -0.027953   0.027714  -0.036749   0.027412
   68  C 17  Z    0.010587   0.010319   0.038026   0.008372   0.038106
   69  C 18  S    0.147791   0.197670  -0.040170   0.151097   0.000331
   70  C 18  X   -0.014834   0.002599   0.010367  -0.040283   0.032435
   71  C 18  Y   -0.031437  -0.050708   0.026387  -0.010393   0.023324
   72  C 18  Z    0.018053   0.032766   0.029339   0.002721   0.066202
   73  C 19  S    0.158684  -0.094208  -0.255373  -0.008549   0.099338
   74  C 19  X   -0.009775   0.038144   0.004481   0.000953  -0.091903
   75  C 19  Y    0.020474  -0.015270  -0.027138   0.046873   0.014085
   76  C 19  Z    0.034950  -0.026032  -0.043669  -0.028909   0.033070
   77  C 20  S    0.178334  -0.150402  -0.221323   0.129107   0.161195
   78  C 20  X    0.005702   0.016346  -0.023571   0.015231  -0.040970
   79  C 20  Y   -0.000117   0.000965   0.028988   0.058382  -0.041694
   80  C 20  Z    0.046656  -0.046535  -0.039087   0.022893   0.047716
   81  C 21  S    0.137525   0.032037  -0.116385  -0.223608  -0.156940
   82  C 21  X   -0.002016   0.043586   0.003327   0.010016  -0.055650
   83  C 21  Y    0.029343   0.009972  -0.020391  -0.037608  -0.029405
   84  C 21  Z   -0.000448   0.001010   0.036512  -0.019914   0.006498
   85  C 22  S    0.158480  -0.091151  -0.123143  -0.246843   0.033441
   86  C 22  X   -0.007573   0.037264  -0.001502  -0.000002  -0.071626
   87  C 22  Y    0.039168  -0.029237  -0.023347  -0.046890   0.021359
   88  C 22  Z   -0.001168   0.001686   0.044848  -0.023289  -0.024486
   89  C 23  S    0.176270  -0.148431  -0.213731  -0.144375   0.200305
   90  C 23  X    0.005281   0.016602  -0.022280  -0.014941  -0.045966
   91  C 23  Y    0.040295  -0.040528  -0.049223   0.005877   0.061957
   92  C 23  Z    0.022834  -0.021903   0.007942  -0.061287   0.008367
   93  C 24  S    0.167831  -0.135695   0.014361  -0.262043   0.017752
   94  C 24  X    0.004979   0.016682  -0.000307  -0.026053  -0.029692
   95  C 24  Y    0.036854  -0.035619   0.033905  -0.037930  -0.011197
   96  C 24  Z   -0.024394   0.024297   0.052441   0.029952  -0.052973
   97  C 25  S    0.147113   0.197411  -0.033922  -0.155139  -0.101135
   98  C 25  X   -0.014608   0.002433   0.008128   0.040855   0.046087
   99  C 25  Y    0.032155   0.054643   0.011095  -0.008394   0.033304
  100  C 25  Z   -0.018613  -0.028201   0.036824   0.010621   0.060321
  101  C 26  S    0.131411   0.092905  -0.011795  -0.213381  -0.128837
  102  C 26  X   -0.002660   0.033096  -0.004219   0.021580   0.002846
  103  C 26  Y    0.024554   0.023199   0.018947  -0.026451   0.005451
  104  C 26  Z   -0.019893  -0.018920   0.040894   0.029199   0.056327
  105  C 27  S    0.148643   0.254313  -0.007875   0.000722   0.090173
  106  C 27  X   -0.051522  -0.084211   0.002506  -0.000096  -0.024415
  107  C 27  Y   -0.000098  -0.000014   0.015064   0.027958   0.048168
  108  C 27  Z   -0.000193   0.000218   0.027368  -0.014636   0.055511
  109  C 28  S    0.176868  -0.189248  -0.136297  -0.092431   0.239219
  110  C 28  X    0.047543  -0.044599  -0.052018  -0.034836   0.063304
  111  C 28  Y    0.024305  -0.029713  -0.005467   0.033138   0.019070
  112  C 28  Z    0.012624  -0.014895   0.033135  -0.041831  -0.020910
  113  C 29  S    0.178685  -0.191234  -0.140746   0.077773   0.203974
  114  C 29  X    0.047986  -0.045021  -0.053735   0.031079   0.051313
  115  C 29  Y   -0.001136   0.001821   0.029186   0.055297  -0.051487
  116  C 29  Z    0.027454  -0.033318   0.012986  -0.007636   0.007747
  117  C 30  S    0.147731   0.236269   0.036231  -0.072604   0.116292
  118  C 30  X   -0.032376  -0.041838  -0.015910   0.028243  -0.016336
  119  C 30  Y    0.017165   0.031540   0.025451   0.020539   0.081069
  120  C 30  Z   -0.029392  -0.052819   0.021018   0.005436   0.019959
  121  C 31  S    0.148977   0.202998   0.146324  -0.043173   0.259882
  122  C 31  X   -0.013380   0.003827  -0.040787   0.010183  -0.013825
  123  C 31  Y    0.000602  -0.001111   0.023569   0.033356   0.050761
  124  C 31  Z   -0.036170  -0.060745  -0.009819  -0.000675  -0.049277
  125  C 32  S    0.132006   0.096264   0.196029  -0.086788   0.131604
  126  C 32  X   -0.002689   0.032991  -0.020684   0.012267   0.051704
  127  C 32  Y    0.005988   0.006916   0.034572   0.035393   0.051435
  128  C 32  Z   -0.030250  -0.029665  -0.032170   0.013944  -0.033052
  129  C 33  S    0.123866   0.032942   0.114332  -0.185603  -0.037126
  130  C 33  X   -0.005131   0.035306  -0.012464   0.016953   0.024787
  131  C 33  Y    0.014577   0.006405   0.045243   0.003254   0.023671
  132  C 33  Z   -0.025188  -0.010108   0.001796   0.042834   0.018867
  133  C 34  S    0.145459  -0.077878   0.140766  -0.217377  -0.083189
  134  C 34  X   -0.006846   0.033581  -0.002791   0.002181   0.004240
  135  C 34  Y    0.018810  -0.012680   0.052318   0.000443  -0.019891
  136  C 34  Z   -0.033034   0.023351  -0.003664   0.053149   0.007010
  137  C 35  S    0.146673   0.199738   0.143863   0.053185   0.290482
  138  C 35  X   -0.014743   0.001427  -0.041257  -0.012518  -0.020414
  139  C 35  Y   -0.031881  -0.052299  -0.021998   0.014321  -0.060284
  140  C 35  Z   -0.018735  -0.032667   0.014052  -0.026415  -0.004445
  141  C 36  S    0.145963   0.233508   0.034938   0.073581   0.177629
  142  C 36  X   -0.033165  -0.043358  -0.015496  -0.028584  -0.038067
  143  C 36  Y   -0.033957  -0.061432   0.004552   0.005227  -0.022068
  144  C 36  Z   -0.000221   0.000203   0.032660  -0.017428   0.062727
  145  C 37  S    0.150447  -0.078353   0.280657   0.002667  -0.134883
  146  C 37  X   -0.004457   0.033705   0.004310   0.000831   0.053263
  147  C 37  Y   -0.018184   0.012909  -0.027123   0.041558   0.014624
  148  C 37  Z   -0.033803   0.023800  -0.049218  -0.024022   0.035447
  149  C 38  S    0.135634   0.038767   0.258973   0.006189   0.080834
  150  C 38  X   -0.001319   0.042511  -0.012597   0.000435   0.088900
  151  C 38  Y   -0.014227  -0.005571  -0.022374   0.034913  -0.005898
  152  C 38  Z   -0.025589  -0.010037  -0.038189  -0.021118  -0.017622
  153  C 39  S    0.132262   0.096787   0.194180   0.094878   0.166955
  154  C 39  X   -0.002504   0.033115  -0.019498  -0.012002   0.059304
  155  C 39  Y   -0.029676  -0.029358  -0.046847   0.002825  -0.055512
  156  C 39  Z   -0.011239  -0.009597   0.012536  -0.036198   0.011613
  157  C 40  S    0.160672  -0.125510   0.233553  -0.120923  -0.148692
  158  C 40  X    0.006424   0.014806   0.025095  -0.011802  -0.000102
  159  C 40  Y    0.001001  -0.000045   0.031781   0.051010  -0.027523
  160  C 40  Z   -0.043701   0.041657  -0.045053   0.024452   0.031940

                      6          7          8          9         10
                   -1.4784    -1.4707    -1.3176    -1.3163    -1.2098
                     A          A          A          A          A   
    1  C  1  S   -0.225383   0.149926  -0.087349   0.026572   0.137273
    2  C  1  X   -0.063774   0.004696  -0.038700   0.016876  -0.044582
    3  C  1  Y   -0.001646  -0.030328  -0.004711   0.048529  -0.103746
    4  C  1  Z    0.012202   0.048316   0.057007   0.051906   0.007414
    5  C  2  S    0.178751   0.180871  -0.074402   0.064307   0.154262
    6  C  2  X    0.061514   0.015230  -0.036212   0.024262  -0.040016
    7  C  2  Y   -0.012781   0.053165   0.012715  -0.050825   0.058552
    8  C  2  Z    0.020022  -0.001433  -0.041614  -0.057501  -0.086258
    9  C  3  S    0.106263   0.224657   0.023142  -0.097671   0.060850
   10  C  3  X    0.037823   0.026567   0.006276  -0.045331  -0.051438
   11  C  3  Y   -0.061125   0.005143   0.081711  -0.005238  -0.015625
   12  C  3  Z    0.014825  -0.045615   0.002341  -0.037156  -0.086069
   13  C  4  S   -0.100828   0.211348   0.098644   0.034464   0.055053
   14  C  4  X   -0.024734   0.021780   0.041698   0.019266  -0.053176
   15  C  4  Y   -0.035670  -0.047125   0.003836   0.049068  -0.067903
   16  C  4  Z    0.064566  -0.011598   0.056850  -0.048318  -0.054400
   17  C  5  S   -0.211985  -0.007307  -0.205826   0.107326  -0.126997
   18  C  5  X    0.038844  -0.060698  -0.032675   0.029150  -0.060780
   19  C  5  Y    0.052511  -0.010249   0.045286   0.053918  -0.008672
   20  C  5  Z   -0.022542   0.030752   0.055624   0.098354  -0.003767
   21  C  6  S   -0.091959  -0.125517  -0.242505  -0.145226  -0.177657
   22  C  6  X    0.087277  -0.043337   0.003018   0.004411  -0.010607
   23  C  6  Y    0.008516   0.015570  -0.035706   0.091228   0.019516
   24  C  6  Z   -0.037010  -0.005759  -0.053803   0.034384  -0.016904
   25  C  7  S    0.169361  -0.151001  -0.190331  -0.109051  -0.002133
   26  C  7  X    0.086957   0.025772   0.029296   0.016941   0.114629
   27  C  7  Y   -0.013874   0.012782  -0.040239   0.082238   0.013694
   28  C  7  Z    0.029989  -0.021049  -0.040722   0.039392   0.019398
   29  C  8  S   -0.084202   0.055545   0.211645   0.111593  -0.116481
   30  C  8  X    0.016189  -0.069096   0.029184   0.028101  -0.012294
   31  C  8  Y   -0.005282  -0.040118  -0.049538   0.051098   0.007255
   32  C  8  Z    0.056960  -0.013251   0.050252  -0.094630   0.012717
   33  C  9  S   -0.090663  -0.073253  -0.001952   0.293134  -0.120987
   34  C  9  X    0.065468  -0.065378  -0.004070   0.020963   0.041111
   35  C  9  Y    0.030542  -0.000323  -0.000796  -0.031025   0.027248
   36  C  9  Z    0.010961   0.005533   0.104014  -0.000250   0.016408
   37  C 10  S   -0.094665  -0.109427   0.193332   0.079403   0.060305
   38  C 10  X   -0.029353   0.054555  -0.026696  -0.017349   0.092687
   39  C 10  Y    0.009211  -0.002317   0.043408  -0.035295   0.008187
   40  C 10  Z   -0.059893  -0.014125  -0.041750   0.068681   0.044534
   41  C 11  S    0.042342  -0.152363   0.251323  -0.131784  -0.113767
   42  C 11  X    0.008296   0.033951  -0.018225   0.011391   0.098237
   43  C 11  Y    0.033650  -0.009845  -0.023509  -0.073571   0.005499
   44  C 11  Z   -0.008630  -0.023765   0.045153   0.025427  -0.002635
   45  C 12  S    0.191984  -0.080950   0.044093  -0.194191   0.082101
   46  C 12  X    0.024541   0.061146   0.000701   0.033989   0.085703
   47  C 12  Y    0.055786  -0.000801  -0.095882   0.005799   0.038637
   48  C 12  Z    0.040410  -0.002858   0.005329  -0.014167   0.031400
   49  C 13  S    0.217913   0.128835   0.025330  -0.089908   0.145488
   50  C 13  X   -0.049115   0.060162   0.008427   0.034282  -0.062031
   51  C 13  Y    0.063060  -0.013118  -0.060155   0.019314   0.007546
   52  C 13  Z    0.022536   0.066481   0.002496   0.013508  -0.013392
   53  C 14  S   -0.004252   0.244627   0.073490  -0.038944   0.010755
   54  C 14  X   -0.008171  -0.015270  -0.029502   0.013980  -0.060632
   55  C 14  Y    0.069607   0.045025  -0.013806  -0.007667  -0.040528
   56  C 14  Z   -0.055193   0.059695  -0.011496   0.012152  -0.059058
   57  C 15  S   -0.177647   0.088375   0.091322   0.037497   0.153857
   58  C 15  X    0.017747   0.068577  -0.025053  -0.030343  -0.051958
   59  C 15  Y    0.005620   0.064651   0.016058  -0.029219  -0.011557
   60  C 15  Z   -0.077291   0.007979  -0.050135   0.027681   0.006692
   61  C 16  S    0.095714  -0.173805  -0.012427   0.288120   0.060934
   62  C 16  X    0.050988   0.002808  -0.001910  -0.025404   0.059897
   63  C 16  Y   -0.024169   0.033656   0.002015  -0.032042  -0.020066
   64  C 16  Z   -0.021190  -0.012754   0.086016   0.001990   0.013120
   65  C 17  S    0.247277  -0.107660  -0.162633   0.130124   0.138369
   66  C 17  X    0.040487   0.049394   0.029947  -0.018387   0.040311
   67  C 17  Y   -0.062830   0.003199   0.027440   0.033163  -0.033945
   68  C 17  Z   -0.004054  -0.015270   0.025998   0.080396  -0.001309
   69  C 18  S    0.278623   0.093602  -0.071008   0.052284   0.087105
   70  C 18  X   -0.055723   0.062163   0.037628  -0.011403  -0.085739
   71  C 18  Y   -0.031428  -0.061326  -0.011861   0.037056   0.002088
   72  C 18  Z   -0.005710   0.019958   0.011899   0.048343  -0.061777
   73  C 19  S   -0.002003  -0.150872   0.252464  -0.133945  -0.208919
   74  C 19  X    0.019392  -0.035031   0.017567  -0.007858  -0.053815
   75  C 19  Y   -0.018344  -0.011637  -0.030838  -0.089330  -0.008086
   76  C 19  Z    0.005550  -0.015644   0.045535   0.035890  -0.017842
   77  C 20  S   -0.127758  -0.074324  -0.007520  -0.235238  -0.078076
   78  C 20  X    0.029236  -0.057958   0.009106  -0.040180  -0.117572
   79  C 20  Y   -0.042550   0.007515  -0.127644  -0.008674  -0.011307
   80  C 20  Z   -0.038184   0.010186  -0.006645  -0.013482   0.033094
   81  C 21  S   -0.087797  -0.173707  -0.011016   0.221393  -0.033884
   82  C 21  X   -0.075296   0.009374   0.003932  -0.030581   0.114848
   83  C 21  Y   -0.018266  -0.029189   0.000681   0.017350   0.005932
   84  C 21  Z   -0.007582  -0.001716  -0.105976  -0.004841   0.022006
   85  C 22  S    0.109980  -0.103593  -0.018666   0.278049  -0.187610
   86  C 22  X   -0.056659  -0.056467   0.000804  -0.004347  -0.024299
   87  C 22  Y    0.031393  -0.005825  -0.001761   0.030299  -0.021478
   88  C 22  Z    0.018094   0.013128  -0.111509  -0.006781   0.008625
   89  C 23  S    0.077509  -0.053991   0.186148   0.134607  -0.074915
   90  C 23  X   -0.003358  -0.060421   0.039248   0.014357  -0.124310
   91  C 23  Y   -0.011187   0.004278   0.039367  -0.045450   0.035069
   92  C 23  Z    0.052763   0.021701  -0.052104   0.101248   0.010103
   93  C 24  S    0.214670   0.030486  -0.205828   0.110094  -0.119640
   94  C 24  X   -0.017729  -0.063800  -0.041027   0.009661  -0.069027
   95  C 24  Y    0.047078   0.037911  -0.034186  -0.048213   0.003801
   96  C 24  Z   -0.017660   0.000970  -0.038997  -0.107591  -0.012055
   97  C 25  S   -0.276887   0.035277  -0.082076   0.032073   0.114763
   98  C 25  X    0.028972   0.070218   0.028609  -0.027907  -0.073750
   99  C 25  Y   -0.036817   0.043199  -0.011391  -0.028425  -0.039940
  100  C 25  Z    0.019489  -0.037837  -0.049210  -0.030761  -0.027732
  101  C 26  S   -0.189349  -0.151118  -0.194744   0.065623   0.124279
  102  C 26  X   -0.053730   0.038649   0.031677  -0.013834   0.053096
  103  C 26  Y   -0.031126  -0.021770  -0.039314  -0.035423   0.020553
  104  C 26  Z    0.038069   0.004164  -0.038009  -0.071368  -0.024476
  105  C 27  S   -0.038836   0.265146   0.003143  -0.007214  -0.231841
  106  C 27  X    0.010904  -0.071854  -0.000859   0.001848   0.046646
  107  C 27  Y    0.062157  -0.007068  -0.002998   0.013627  -0.040308
  108  C 27  Z   -0.046631  -0.027716  -0.016543   0.000638  -0.052745
  109  C 28  S    0.051804   0.111454   0.067057   0.068243   0.265657
  110  C 28  X    0.022944  -0.005466   0.033213   0.028157  -0.013329
  111  C 28  Y   -0.045510   0.036320  -0.006217  -0.052205   0.092112
  112  C 28  Z    0.054152   0.043852  -0.043805   0.053034   0.024354
  113  C 29  S   -0.145551   0.093719  -0.016445  -0.096812   0.254998
  114  C 29  X   -0.041706  -0.011812  -0.004851  -0.045248  -0.016425
  115  C 29  Y   -0.059077   0.007510  -0.077293  -0.012451  -0.033799
  116  C 29  Z   -0.000651   0.055415  -0.000732   0.034277   0.092394
  117  C 30  S   -0.197448   0.135157  -0.062836  -0.040747  -0.148793
  118  C 30  X    0.054934   0.019932   0.027819   0.015527  -0.032472
  119  C 30  Y    0.027738   0.019990   0.011795  -0.005955  -0.091333
  120  C 30  Z    0.020918  -0.078331  -0.013754  -0.012722   0.036422
  121  C 31  S   -0.123193  -0.066060  -0.020273  -0.087130  -0.039475
  122  C 31  X    0.001950   0.089732  -0.009836   0.034173  -0.107693
  123  C 31  Y    0.053292  -0.022611   0.056026   0.024885  -0.000849
  124  C 31  Z    0.017572  -0.044170   0.003991  -0.015636   0.070275
  125  C 32  S   -0.079669  -0.228318  -0.036665  -0.199490   0.146721
  126  C 32  X   -0.032461   0.025216  -0.002264   0.035575  -0.005132
  127  C 32  Y    0.024568  -0.024468   0.094778   0.009240   0.023224
  128  C 32  Z    0.021661   0.035193   0.006735   0.012964  -0.020439
  129  C 33  S   -0.053495  -0.187515  -0.245968  -0.149401   0.046448
  130  C 33  X   -0.064029  -0.008893   0.019783   0.015518   0.066076
  131  C 33  Y    0.001863  -0.026831   0.023894  -0.071062   0.023748
  132  C 33  Z    0.022164   0.028625   0.047012  -0.022983  -0.007987
[...]
  132  C 33  Z    0.035646  -0.032832   0.041243  -0.162726  -0.038934
  133  C 34  S   -0.009164  -0.001152   0.023272  -0.024557  -0.008542
  134  C 34  X    0.008256   0.009627  -0.033118   0.037063   0.002884
  135  C 34  Y    0.015963   0.086307  -0.108630   0.091846   0.029819
  136  C 34  Z   -0.031983  -0.098982   0.179888  -0.134277  -0.015754
  137  C 35  S    0.021615  -0.018380   0.009311   0.019598  -0.075148
  138  C 35  X    0.145109  -0.082341   0.048667   0.084799  -0.103376
  139  C 35  Y    0.212627  -0.128977   0.048003   0.166486  -0.076338
  140  C 35  Z    0.171142  -0.100942   0.001575   0.093337  -0.052520
  141  C 36  S   -0.010054   0.002533  -0.042356  -0.017140   0.111269
  142  C 36  X   -0.069082   0.026680  -0.206320  -0.071642   0.188521
  143  C 36  Y   -0.089933   0.036293  -0.194602  -0.077241   0.186234
  144  C 36  Z   -0.035792   0.022085  -0.001449  -0.031357   0.002503
  145  C 37  S   -0.012093  -0.004899   0.007035   0.001621   0.072845
  146  C 37  X    0.028262   0.000326  -0.002467  -0.022895  -0.054457
  147  C 37  Y   -0.073364  -0.046492   0.014638   0.113467   0.149828
  148  C 37  Z   -0.101130  -0.052346   0.071774   0.166631   0.173848
  149  C 38  S   -0.021935   0.007474  -0.012439  -0.019667   0.012252
  150  C 38  X   -0.043326   0.021940  -0.021268  -0.015077   0.045353
  151  C 38  Y   -0.125916   0.079542  -0.114554  -0.028933   0.030351
  152  C 38  Z   -0.205658   0.125615  -0.137967  -0.085857  -0.041914
  153  C 39  S    0.015217   0.009728   0.023520  -0.005094  -0.058793
  154  C 39  X    0.002052   0.007248   0.020249  -0.034087   0.024366
  155  C 39  Y    0.111905  -0.006753   0.185174  -0.104525  -0.222440
  156  C 39  Z    0.084780  -0.008291   0.105376  -0.057127  -0.083745
  157  C 40  S   -0.007174  -0.035669   0.000771   0.025942   0.003653
  158  C 40  X    0.043327   0.121837  -0.026442  -0.034944  -0.050346
  159  C 40  Y    0.012818   0.004871   0.008674  -0.027418  -0.027944
  160  C 40  Z   -0.112853  -0.337089  -0.006619   0.079030   0.036964

                     86         87         88         89         90
                   -0.0560    -0.0534    -0.0507    -0.0415    -0.0400
                     A          A          A          A          A   
    1  C  1  S   -0.000135  -0.048788  -0.003410  -0.025349  -0.189435
    2  C  1  X    0.022734   0.119373  -0.020583   0.058729   0.285631
    3  C  1  Y    0.023430  -0.071791   0.009948  -0.126185  -0.187635
    4  C  1  Z   -0.000748   0.014467   0.030197  -0.043500   0.091235
    5  C  2  S   -0.027835  -0.084241   0.005968   0.033599  -0.140682
    6  C  2  X    0.055583   0.184926  -0.047627  -0.015188   0.228722
    7  C  2  Y    0.058262   0.159007  -0.021667   0.017915   0.145092
    8  C  2  Z   -0.019854  -0.054615  -0.041380   0.104346  -0.075093
    9  C  3  S    0.005200  -0.022255   0.039518  -0.142123   0.065024
   10  C  3  X   -0.004212   0.056487  -0.079641   0.188195  -0.113345
   11  C  3  Y   -0.021768  -0.047888   0.026459  -0.044271  -0.116686
   12  C  3  Z   -0.012016  -0.091968   0.074993  -0.120968   0.124888
   13  C  4  S    0.011409   0.038727  -0.042626   0.121828   0.139691
   14  C  4  X   -0.024088  -0.114462   0.073236  -0.174600  -0.225186
   15  C  4  Y    0.032250   0.039099  -0.024745   0.068358   0.217996
   16  C  4  Z    0.001399   0.011789  -0.034895   0.103519   0.022510
   17  C  5  S   -0.060164   0.022739   0.062982   0.103302   0.091162
   18  C  5  X    0.035740  -0.011198  -0.025539  -0.049360  -0.114413
   19  C  5  Y   -0.134283   0.000641   0.098219   0.120668   0.109238
   20  C  5  Z    0.031171   0.035104  -0.063099  -0.093223  -0.062620
   21  C  6  S   -0.006123   0.014915  -0.067199  -0.129363  -0.033051
   22  C  6  X   -0.020644  -0.023113   0.056497   0.104085   0.031093
   23  C  6  Y   -0.049849   0.086577  -0.036375  -0.070665  -0.017167
   24  C  6  Z    0.119329  -0.178418   0.104310   0.172054   0.003474
   25  C  7  S    0.067232  -0.021336  -0.046959  -0.028734  -0.004786
   26  C  7  X    0.049435  -0.007179  -0.058270  -0.098889  -0.035973
   27  C  7  Y    0.159607  -0.073853   0.002961  -0.038256  -0.057741
   28  C  7  Z   -0.269242   0.104047   0.059631   0.090418   0.084749
   29  C  8  S   -0.029478   0.068177   0.028125  -0.017824  -0.132246
   30  C  8  X    0.013350  -0.020618  -0.011491   0.058925   0.105465
   31  C  8  Y   -0.059003   0.141895   0.016558  -0.024247  -0.153462
   32  C  8  Z    0.022488   0.082014  -0.003557  -0.002718  -0.109844
   33  C  9  S    0.097833  -0.063999  -0.045258  -0.019807   0.010530
   34  C  9  X   -0.048090   0.040673   0.036032   0.028239  -0.012620
   35  C  9  Y    0.331133  -0.159570  -0.055668   0.000865   0.003428
   36  C  9  Z   -0.014770  -0.044463   0.027026   0.053692   0.090847
   37  C 10  S    0.027339   0.042572   0.092329  -0.021251   0.003872
   38  C 10  X    0.028002   0.010306  -0.038122  -0.027019   0.004762
   39  C 10  Y   -0.063865  -0.050755  -0.225813   0.090051   0.020558
   40  C 10  Z   -0.062361  -0.008010  -0.170712   0.030702   0.019682
   41  C 11  S   -0.023769  -0.012018  -0.073472  -0.036672  -0.005718
   42  C 11  X    0.013187   0.000985  -0.119783  -0.044255   0.025224
   43  C 11  Y    0.117450  -0.061897   0.137361   0.022080  -0.048044
   44  C 11  Z    0.134544  -0.164319   0.205370   0.160312  -0.080119
   45  C 12  S   -0.038237  -0.003594   0.063336   0.082851   0.003958
   46  C 12  X   -0.003084  -0.012641  -0.045419  -0.000090   0.004632
   47  C 12  Y   -0.033239   0.013027  -0.021941  -0.003330   0.008442
   48  C 12  Z    0.075795   0.056383  -0.207059  -0.238186   0.016333
   49  C 13  S    0.022989  -0.015708   0.071689  -0.002051  -0.010499
   50  C 13  X    0.037324  -0.045183   0.078206  -0.007194  -0.024599
   51  C 13  Y    0.007251  -0.025838  -0.013987  -0.006063   0.019266
   52  C 13  Z   -0.054126   0.050791  -0.054346   0.072275   0.014725
   53  C 14  S   -0.015447  -0.000227  -0.126144  -0.046719   0.038801
   54  C 14  X   -0.013180  -0.039279  -0.215187  -0.067439   0.110168
   55  C 14  Y   -0.011877  -0.017613   0.065722   0.032972  -0.040585
   56  C 14  Z    0.008040  -0.020823   0.135519   0.030651  -0.073054
   57  C 15  S   -0.030309  -0.054730   0.052616   0.038437  -0.013563
   58  C 15  X   -0.042258  -0.074268   0.035116   0.051825  -0.021374
   59  C 15  Y    0.088062   0.101400   0.049826  -0.062996  -0.000362
   60  C 15  Z    0.032850   0.012868   0.016139  -0.056811   0.019819
   61  C 16  S   -0.031665  -0.010110  -0.026111  -0.053029   0.024023
   62  C 16  X    0.022843  -0.036206  -0.042455  -0.035332   0.015842
   63  C 16  Y   -0.215401   0.075858  -0.022547  -0.080234   0.024237
   64  C 16  Z   -0.027138  -0.051769   0.029615   0.044644   0.059590
   65  C 17  S   -0.039100  -0.016549   0.056410   0.072420   0.031141
   66  C 17  X   -0.002765  -0.045929  -0.000611   0.008670   0.029878
   67  C 17  Y   -0.102842  -0.030910   0.084350   0.173023   0.114107
   68  C 17  Z    0.092462   0.013060  -0.056332  -0.083412  -0.073119
   69  C 18  S   -0.000173   0.049967  -0.019387  -0.005000  -0.030070
   70  C 18  X    0.005746   0.058818  -0.037557  -0.027792  -0.025905
   71  C 18  Y    0.017792   0.085099  -0.039132  -0.065490  -0.061254
   72  C 18  Z   -0.013338  -0.071803   0.068712   0.055643   0.031424
   73  C 19  S    0.045442  -0.009645  -0.109130  -0.038991   0.017781
   74  C 19  X   -0.014660   0.014249   0.081913   0.037747  -0.003877
   75  C 19  Y   -0.057723   0.092058   0.095021  -0.080424   0.039592
   76  C 19  Z   -0.176564   0.118226   0.122794   0.027486   0.060296
   77  C 20  S   -0.036397  -0.011988   0.081993   0.157034  -0.015415
   78  C 20  X    0.027105   0.018459  -0.005933  -0.112275   0.031201
   79  C 20  Y    0.019983  -0.020659  -0.005663   0.014522   0.003515
   80  C 20  Z    0.083749   0.064281  -0.136100  -0.312816   0.012940
   81  C 21  S    0.034671  -0.039572  -0.047717   0.019044  -0.002872
   82  C 21  X   -0.009536  -0.054729  -0.098447   0.042977  -0.019483
   83  C 21  Y   -0.221132   0.120653   0.108653  -0.158227   0.051030
   84  C 21  Z   -0.020113  -0.036177   0.031633   0.005914  -0.005288
   85  C 22  S   -0.087151  -0.044714  -0.116185   0.015655  -0.015475
   86  C 22  X    0.057129   0.035904   0.092933  -0.027767   0.018447
   87  C 22  Y    0.308085   0.005445   0.136137   0.023853   0.015727
   88  C 22  Z   -0.011806  -0.036211   0.036519   0.017171  -0.003689
   89  C 23  S    0.014113   0.011057   0.163348  -0.033982  -0.012775
   90  C 23  X    0.013865   0.016430  -0.100433   0.061266   0.023141
   91  C 23  Y   -0.033400  -0.053068  -0.239949   0.069075  -0.014662
   92  C 23  Z    0.029422  -0.032943  -0.148419   0.036779  -0.008843
   93  C 24  S    0.051983   0.110632   0.087522  -0.045544   0.054404
   94  C 24  X   -0.025056  -0.082145  -0.034862   0.052697  -0.078418
   95  C 24  Y   -0.084986  -0.137430  -0.155026   0.097985  -0.073444
   96  C 24  Z    0.008990   0.096146   0.076713  -0.070828   0.036612
   97  C 25  S    0.024526   0.090627  -0.040229   0.028892  -0.023925
   98  C 25  X    0.032238   0.107160  -0.077386   0.048723  -0.023442
   99  C 25  Y    0.012364  -0.092640   0.149358  -0.073771   0.058173
  100  C 25  Z   -0.010020   0.043062  -0.041630   0.054953  -0.032836
  101  C 26  S    0.030526   0.043630   0.079119  -0.032023   0.022149
  102  C 26  X    0.006222  -0.053713   0.014359  -0.020173   0.026975
  103  C 26  Y   -0.115891  -0.139874  -0.174419   0.089479  -0.103166
  104  C 26  Z    0.107659   0.102856   0.091342  -0.036413   0.054140
  105  C 27  S    0.026541   0.078515   0.121113   0.057113  -0.045659
  106  C 27  X    0.045112   0.146445   0.234804   0.080749  -0.092921
  107  C 27  Y   -0.009183  -0.013988  -0.001976  -0.005547   0.008295
  108  C 27  Z    0.009733   0.026242  -0.019095   0.003982   0.015319
  109  C 28  S    0.012746   0.067083  -0.083184   0.093722   0.075746
  110  C 28  X   -0.035868  -0.168885   0.139185  -0.142097  -0.149645
  111  C 28  Y   -0.020146  -0.109109   0.132398  -0.058281  -0.127382
  112  C 28  Z   -0.004710  -0.025201   0.088377  -0.110225   0.030864
  113  C 29  S    0.015094  -0.002944   0.023946  -0.135759   0.079563
  114  C 29  X   -0.040517  -0.010407  -0.030533   0.215699  -0.088751
  115  C 29  Y    0.001058   0.055779  -0.027663   0.042962   0.115312
  116  C 29  Z   -0.049805  -0.032777   0.022001   0.201078  -0.033336
  117  C 30  S   -0.062745  -0.119198  -0.043731  -0.032953   0.014839
  118  C 30  X   -0.076178  -0.192028  -0.029835  -0.073571  -0.004256
  119  C 30  Y    0.024174   0.075684  -0.047922   0.037118   0.001118
  120  C 30  Z   -0.067977  -0.121211   0.034155  -0.021241  -0.044201
  121  C 31  S    0.059584   0.066254   0.043678  -0.025185   0.026439
  122  C 31  X    0.073070   0.064757   0.030247  -0.019880   0.052155
  123  C 31  Y    0.016006  -0.004867   0.002147  -0.031185   0.008762
  124  C 31  Z    0.074080   0.015612   0.063558  -0.070921   0.123470
  125  C 32  S   -0.011111   0.076104  -0.020810   0.040054  -0.068891
  126  C 32  X   -0.021775  -0.046474  -0.041477   0.009744  -0.005909
  127  C 32  Y   -0.039324  -0.004953  -0.004133  -0.007717  -0.005512
  128  C 32  Z    0.001248   0.227966  -0.089101   0.117860  -0.182235
  129  C 33  S   -0.040987  -0.051216  -0.028755  -0.015411   0.028384
  130  C 33  X   -0.027430  -0.105942  -0.027782  -0.015661   0.010234
  131  C 33  Y    0.179218   0.085281   0.038932   0.026099   0.049982
  132  C 33  Z   -0.271429  -0.189108   0.043329  -0.123092   0.021445
  133  C 34  S    0.009215  -0.105620  -0.036974   0.000170   0.011169
  134  C 34  X    0.004297   0.068195   0.034228   0.000903  -0.018261
  135  C 34  Y   -0.073627   0.040871   0.101413  -0.110321   0.037420
  136  C 34  Z    0.166250  -0.102373  -0.073535   0.093083   0.062917
  137  C 35  S   -0.036467  -0.043624   0.017953   0.048166   0.005067
  138  C 35  X   -0.036885  -0.069121   0.003225   0.028150   0.030936
  139  C 35  Y   -0.039488  -0.090008   0.010108   0.042730   0.087206
  140  C 35  Z   -0.054365  -0.112014  -0.021160   0.036864   0.047393
  141  C 36  S    0.005081  -0.027816  -0.051042  -0.046110   0.024113
  142  C 36  X    0.021746  -0.025276  -0.087031  -0.017750  -0.002543
  143  C 36  Y    0.030226   0.026213  -0.006042   0.011111  -0.028061
  144  C 36  Z    0.010848   0.028997  -0.004926  -0.016892  -0.017384
  145  C 37  S   -0.043157  -0.062248  -0.009549  -0.042140   0.116803
  146  C 37  X    0.014995   0.065459  -0.005992   0.021230  -0.087487
  147  C 37  Y   -0.091888  -0.036130   0.024659  -0.029398   0.054446
  148  C 37  Z   -0.221141  -0.098420   0.060253  -0.081296   0.111443
  149  C 38  S    0.046892  -0.067728  -0.006954   0.001596   0.021143
  150  C 38  X    0.016457  -0.079141  -0.001143  -0.017408   0.099739
  151  C 38  Y    0.154361  -0.060199  -0.008364   0.035415   0.070844
  152  C 38  Z    0.230784  -0.156849   0.000212   0.048526   0.128110
  153  C 39  S   -0.000737   0.080241   0.002779  -0.005581  -0.062466
  154  C 39  X    0.023189   0.022986  -0.023106  -0.038057  -0.013449
  155  C 39  Y   -0.019833   0.139423   0.026019  -0.029819  -0.171477
  156  C 39  Z   -0.041173   0.107743   0.006971  -0.040183  -0.100109
  157  C 40  S    0.015745   0.104871  -0.010444   0.078372  -0.106368
  158  C 40  X   -0.004143  -0.046699   0.045613  -0.076436   0.065118
  159  C 40  Y    0.025710  -0.006212  -0.010112   0.014477  -0.013275
  160  C 40  Z    0.038652   0.209208  -0.079402   0.132059  -0.210971

     ----------------------------------------------------------------
     PROPERTY VALUES FOR THE RHF   SELF-CONSISTENT FIELD WAVEFUNCTION
     ----------------------------------------------------------------

                    -------------
                    MOPAC CHARGES
                    -------------
         ATOM NO.   TYPE          CHARGE        ATOM  ELECTRON DENSITY
           1         C              0.0418          3.9582
           2         C              0.0587          3.9413
           3         C             -0.0747          4.0747
           4         C             -0.0008          4.0008
           5         C              0.0114          3.9886
           6         C             -0.0038          4.0038
           7         C             -0.0176          4.0176
           8         C              0.0417          3.9583
           9         C             -0.0309          4.0309
          10         C             -0.0149          4.0149
          11         C              0.0892          3.9108
          12         C             -0.0020          4.0020
          13         C             -0.0795          4.0795
          14         C              0.0666          3.9334
          15         C             -0.0055          4.0055
          16         C              0.0438          3.9562
          17         C             -0.0168          4.0168
          18         C              0.0015          3.9985
          19         C             -0.0394          4.0394
          20         C              0.0531          3.9469
          21         C             -0.0499          4.0499
          22         C              0.0306          3.9694
          23         C              0.0027          3.9973
          24         C             -0.0192          4.0192
          25         C             -0.0756          4.0756
          26         C              0.0120          3.9880
          27         C             -0.1175          4.1175
          28         C              0.0206          3.9794
          29         C             -0.0769          4.0769
          30         C              0.1122          3.8878
          31         C             -0.0772          4.0772
          32         C             -0.0099          4.0099
          33         C              0.0182          3.9818
          34         C             -0.0108          4.0108
          35         C              0.1010          3.8990
          36         C              0.0185          3.9815
          37         C             -0.0369          4.0369
          38         C              0.0583          3.9417
          39         C             -0.0743          4.0743
          40         C              0.0519          3.9481

          ---------------------
          ELECTROSTATIC MOMENTS
          ---------------------

 POINT   1           X           Y           Z (ANGS)      CHARGE
                 0.000000    0.000000    0.000000        0.00 (A.U.)
         DX          DY          DZ         /D/  (DEBYE)
    -1.438892    0.561462    0.469844    1.614436
 ...... END OF PROPERTY EVALUATION ......
 CPU     0: STEP CPU TIME=     0.03 TOTAL CPU TIME=          1.5 (      0.0 MIN)
 TOTAL WALL CLOCK TIME=          2.4 SECONDS, CPU UTILIZATION IS    61.57%
  $VIB   
          IVIB=   0 IATOM=   0 ICOORD=   0 E=     -172.9505557709
 -5.909444260E-04-1.881720925E-04 3.043061467E-04-4.304522568E-04 1.728756738E-04
 -3.540159174E-04 1.180230681E-04 4.026213222E-04 9.866545371E-05-4.542466736E-04
 -3.459691114E-04-2.306963473E-04-1.163347236E-08-3.752761967E-05-7.031488068E-04
 -3.676515340E-04 8.666817106E-05-5.585971146E-05 2.980800018E-04 2.432074179E-04
 -2.077359865E-04 5.268416180E-05 4.961722667E-04-2.281329292E-04-1.834977526E-04
  1.220276274E-04 6.460700887E-04 2.420387106E-05-1.445241002E-04-2.877280907E-04
  1.116184650E-04-2.747781981E-04-6.768493921E-05 3.799236065E-04-7.771581819E-05
 -8.626225974E-06 1.224684930E-04-1.421809525E-04-2.624448271E-04-1.180236415E-04
 -1.232354454E-04 1.210149888E-05 3.146475989E-04 4.238944937E-06-2.893050763E-04
  1.555116916E-04 2.918232650E-04 4.756555183E-04 2.277609095E-04 9.968031423E-06
 -4.071549772E-04 1.367651710E-04 7.698260129E-05 7.640860778E-05-2.999916028E-04
 -1.316108132E-04 8.898984541E-05-1.726891319E-04 1.996810706E-05 3.240109426E-05
 -1.483313450E-04-1.849513452E-05-8.204789033E-05 1.883994033E-04-4.550528101E-04
 -9.044950005E-05 3.063283507E-04-1.150197087E-05-3.404688833E-04 2.656686103E-04
 -4.526963265E-05 2.989537379E-04-1.271536235E-04-1.537990853E-04 9.568480996E-05
  4.405823333E-04-5.746099710E-04 1.384331559E-04 3.437837555E-05 3.243247327E-04
 -5.407806846E-05-5.248452414E-04 2.296291424E-04 1.764997540E-04 9.346784930E-05
 -4.259255772E-05-3.502022706E-05 1.697734029E-04 1.176507265E-04 1.147934357E-04
  1.016249613E-04 2.607041949E-04-1.414281083E-04 1.528173344E-04-1.233800797E-04
  7.361372636E-04-1.676111289E-06 3.540452630E-04-2.137931455E-04-2.008956485E-04
 -3.518605566E-04 1.995094095E-04 2.471299156E-04-1.817579121E-04 1.633428439E-04
  1.849781454E-04-2.966083102E-04-1.577509921E-04 5.391469064E-04 7.189455520E-05
  5.412018911E-04-7.522183593E-04-1.828027593E-04 1.600614945E-04-1.882902582E-05
  5.367451174E-04-1.188859956E-04-2.745246191E-04 8.189777031E-05-2.275940392E-05
 -1.438891953E+00 5.614622101E-01 4.698438293E-01
 ......END OF GEOMETRY SEARCH......
 CPU     0: STEP CPU TIME=     0.02 TOTAL CPU TIME=          1.5 (      0.0 MIN)
 TOTAL WALL CLOCK TIME=          2.4 SECONDS, CPU UTILIZATION IS    62.24%
                580000  WORDS OF DYNAMIC MEMORY USED
 EXECUTION OF GAMESS TERMINATED NORMALLY 21:10:20 27-MAY-2023    
 DDI: 263640 bytes (0.3 MB / 0 MWords) used by master data server.

 ----------------------------------------
 CPU timing information for all processes
 ========================================
 0: 0.953125 + 0.546875 = 1.500000
 1: 1.343750 + 0.375000 = 1.718750
 2: 0.640625 + 0.953125 = 1.593750
 3: 0.734375 + 1.390625 = 2.125000
 ----------------------------------------
           Disk usage (in bytes)       
 ========================================
 ----------------------------------------
            Local date and time          
 ========================================
27.05.2023 - 21:10:20,83                          
