          *******************************************************
          *                                                     *
          *          GAMESS VERSION = 30 SEP 2022 (R2)          *
          *                                                     *
          *              doi.org/10.1063/5.0005188              *
          *                                                     *
          *************** 64 BIT WINDOWS VERSION ****************

  GAMESS HAS BEEN MADE POSSIBLE WITH IMPORTANT CONTRIBUTIONS FROM
  THE FOLLOWING INDIVIDUALS (IN ALPHABETICAL ORDER):

     IVANA ADAMOVIC, CHRISTINE AIKENS, TOMOKO AKAMA,
     MELISA ALKAN, YURI ALEXEEV, YURIKO AOKI, POOJA ARORA,
     TOSHIO ASADA, ANDREY ASADCHEV, KIM K. BALDRIDGE,
     PRADIPTA BANDYOPADHYAY, TAYLOR A. BARNES, MARIA BARYSZ,
     ROB BELL, JONATHAN BENTZ, COLLEEN BERTONI,
     JERRY A. BOATZ, BRETT BODE, KURT BRORSEN, KURT R. BRORSEN,
     LAIMUTIS BYTAUTAS, CALEB CARLIN, LAURA CARRINGTON,
     GALINA CHABAN, BENOIT CHAMPAGNE, WEI CHEN, MAHITO CHIBA,
     DAN CHIPMAN, CHEOL HO CHOI, TANNER CULPITT,
     DIPAYAN DATTA, PAUL DAY, ALBERT DEFUSCO,
     NUWAN DESILVA, J. EMILIANO DEUSTUA,
     TIM DUDLEY, MICHEL DUPUIS, STEVEN T. ELBERT,
     DMITRI FEDOROV, KATHERINE FERRERAS, MICHAEL FILATOV,
     ALEX FINDLATER,GRAHAM FLETCHER, MARK FREITAG,
     CHRISTIAN FRIEDL, DAVID GARMER, 
     IGOR S. GERASIMOV, KURT GLAESEMANN,
     MARK S. GORDON, JEFFREY GOUR, FENG LONG GU,
     EMILIE B. GUIDEZ, ANASTASIA GUNINA, SHARON HAMMES-SCHIFFER,
     MASATAKE HARUTA, KIMIHIKO HIRAO, YASUHIRO IKABATA,
     TZVETELIN IORDANOV, STEPHAN IRLE, KAZUYA ISHIMURA,
     JOE IVANIC, FRANK JENSEN, JAN H. JENSEN, VISVALDAS KAIRYS,
     MUNEAKI KAMIYA, MICHIO KATOUDA, NAOAKI KAWAKAMI, DAN KEMP,
     BERNARD KIRTMAN, KAZUO KITAURA, MARIUSZ KLOBUKOWSKI,
     MASATO KOBAYASHI, KONSTANTIN KOMAROV, PRAKASHAN KORAMBATH,
     JACEK KORCHOWIEC, SHIRO KOSEKI, KAROL KOWALSKI,
     JIMMY KROMANN, STANISLAW KUCHARSKI, HENRY KURTZ,
     SAROM SOK LEANG, SEUNGHOON LEE, HUI LI, SHUHUA LI, WEI LI,
     JESSE LUTZ, ALEKSANDR O. LYKHIN, MARCIN MAKOWSKI,
     JOANI MATO, NIKITA MATSUNAGA, BENEDETTA MENNUCCI,
     GRANT MERRILL, NORIYUKI MINEZAWA, VLADIMIR MIRONOV,
     EISAKU MIYOSHI, JOHN A. MONTGOMERY JR., HIROTOSHI MORI,
     JONATHAN MULLIN, MONIKA MUSIAL, SHIGERU NAGASE,
     TAKESHI NAGATA, HIROMI NAKAI, TAKAHITO NAKAJIMA,
     YUYA NAKAJIMA, HARUYUKI NAKANO, HIROYA NAKATA, SEAN NEDD,
     HEATHER NETZLOFF, KIET A. NGUYEN, YOSHIO NISHIMOTO,
     BOSILJKA NJEGIC, RYAN OLSON, MIKE PAK, ROBERTO PEVERATI,
     BUU PHAM, PIOTR PIECUCH, ANNA POMOGAEVA, DAVID POOLE,
     SPENCER PRUITT, OLIVIER QUINET, LUKE ROSKOP,
     KLAUS RUEDENBERG, ANDREW SAND, TOSAPORN SATTASATHUCHANA,
     NOZOMI SAWADA, MICHAEL W. SCHMIDT, PATRICK E. SCHNEIDER,
     JUNJI SEINO, PRACHI SHARMA, JUN SHEN, JIM SHOEMAKER,
     YINAN SHU, DEJUN SI, JONATHAN SKONE, LYUDMILA SLIPCHENKO,
     TONY SMITH, JIE SONG, MARK SPACKMAN, CASPER STEINMANN,
     WALT STEVENS, PEIFENG SU, SHUJUN SU, CHET SWALINA,
     CHINAMI TAKASHIMA, TETSUYA TAKETSUGU, ZHEN TAO,
     NANDUN THELLAMUREGE, SEIKEN TOKURA, JACOPO TOMASI,
     TSUGUKI TOUMA, TAKAO TSUNEDA, HIROAKI UMEDA,
     JORGE LUIS GALVEZ VALLEJO, YALI WANG, SIMON WEBB,
     AARON WEST, THERESA L. WINDUS, MARTA WLOCH,
     PENG XU, KIYOSHI YAGI, SUSUMU YANAGISAWA, YANG YANG,
     SOOHAENG YOO, TAKESHI YOSHIKAWA, FEDERICO ZAHARIEV,
     TOBY ZENG

  WHO ARE SUPPORTED BY THEIR INSTITUTION/UNIVERSITY/COMPANY/GROUP
  (IN ALPHABETICAL ORDER):

     EP ANALYTICS,
     FACULTES UNIVERSITAIRES NOTRE-DAME DE LA PAIX,
     INSTITUTE FOR MOLECULAR SCIENCE, IOWA STATE UNIVERSITY,
     JACKSON STATE UNIVERSITY, JOHANNES KEPLER UNIVERSITY LINZ,
     KYUNGPOOK NATIONAL UNIVERSITY
     KYUSHU UNIVERSITY, MICHIGAN STATE UNIVERSITY,
     MIE UNIVERSITY, THE MOLECULAR SCIENCES SOFTWARE INSTITUTE,
     MOSCOW STATE UNIVERSITY,
     N. COPERNICUS UNIVERSITY, NAGOYA UNIVERSITY,
     NANJING UNIVERSITY, NAT. INST. OF ADVANCED INDUSTRIAL
     SCIENCE AND TECHNOLOGY, NATIONAL INST. OF STANDARDS AND
     TECHNOLOGY, NESMEYANOV INSTITUTE OF ORGANOELEMENT COMPOUNDS
     OF RUSSIAN ACADEMY OF SCIENCES, OSAKA PREFECTURE UNIVERSITY,
     PENNSYLVANIA STATE UNIVERSITY, TOKYO INSTITUTE OF TECHNOLOGY,
     UNIVERSITY OF AARHUS, UNIVERSITY OF ALBERTA,
     UNIVERSITY OF CALIFORNIA AT SANTA BARBARA,
     UNIVERSITY OF COPENHAGEN, UNIVERSITY OF IOWA,
     UNIVERSITY OF MEMPHIS, UNIVERSITY OF MINNESOTA,
     UNIVERSITY OF NEBRASKA, UNIVERSITY OF NEW ENGLAND,
     UNIVERSITY OF NOTRE DAME, UNIVERSITY OF PISA,
     UNIVERSITY OF SILESIA, UNIVERSITY OF TOKYO,
     UNIVERSITY OF ZURICH, WASEDA UNIVERSITY,
     YALE UNIVERSITY

  GAMESS SOFTWARE MANAGEMENT TEAM FOR THIS RELEASE:
     MARK S. GORDON (TEAM LEAD),
     BRETT BODE (SENIOR ADVISOR),
     GIUSEPPE BARCA,
     COLLEEN BERTONI,
     KRISTOPHER KEIPERT (ADVISOR),
     SAROM S. LEANG (DEVELOPMENT LEAD),
     BUU PHAM,
     JACKSON HAYES (WEBSITE ADMINISTRATOR),
     PENG XU


 PARALLEL VERSION RUNNING ON        2 PROCESSORS IN        2 NODES.

 EXECUTION OF GAMESS BEGUN 21:10:30 27-MAY-2023    

            ECHO OF THE FIRST FEW INPUT CARDS -
 INPUT CARD>! (Energy/Geometry) PM3                                                         
 INPUT CARD> $CONTRL                                                                        
 INPUT CARD>COORD=UNIQUE                                                                    
 INPUT CARD>ICHARG=0                                                                        
 INPUT CARD>MAXIT=200                                                                       
 INPUT CARD>MULT=1                                                                          
 INPUT CARD>RUNTYP=OPTIMIZE                                                                 
 INPUT CARD>SCFTYP=RHF                                                                      
 INPUT CARD>UNITS=ANGS                                                                      
 INPUT CARD>! DFTTYP=PBE                                                                    
 INPUT CARD> $END                                                                           
 INPUT CARD> $DFT                                                                           
 INPUT CARD>METHOD=GRID                                                                     
 INPUT CARD> $END                                                                           
 INPUT CARD> $BASIS                                                                         
 INPUT CARD>! EXTFIL=.T.                                                                    
 INPUT CARD>! GBASIS=GEGSSBAS                                                               
 INPUT CARD>! NGAUSS=6                                                                      
 INPUT CARD>GBASIS=PM3                                                                      
 INPUT CARD>! NDFUNC=1                                                                      
 INPUT CARD>! NPFUNC=1                                                                      
 INPUT CARD> $END                                                                           
 INPUT CARD> $SCF                                                                           
 INPUT CARD>DAMP=.F.                                                                        
 INPUT CARD>DEM=.F.                                                                         
 INPUT CARD>DIIS=.F.                                                                        
 INPUT CARD>DIRSCF=.T.                                                                      
 INPUT CARD>EXTRAP=.T.                                                                      
 INPUT CARD>RSTRCT=.F.                                                                      
 INPUT CARD>SHIFT=.F.                                                                       
 INPUT CARD>SOSCF=.T.                                                                       
 INPUT CARD> $END                                                                           
 INPUT CARD> $STATPT                                                                        
 INPUT CARD>METHOD=QA                                                                       
 INPUT CARD>NSTEP=100                                                                       
 INPUT CARD>OPTTOL=0.001                                                                    
 INPUT CARD> $END                                                                           
 INPUT CARD> $GUESS                                                                         
 INPUT CARD>GUESS=HUCKEL                                                                    
 INPUT CARD> $END                                                                           
 INPUT CARD> $SYSTEM                                                                        
 INPUT CARD>MWORDS=10                                                                       
 INPUT CARD> $END                                                                           
 INPUT CARD> $DATA                                                                          
 INPUT CARD>C40 FULLERENE                                                                   
 INPUT CARD>C1                                                                              
 INPUT CARD>C	6.0	-3.6784	0.3523	1.1022                                                     
 INPUT CARD>C	6.0	-2.4901	0.583	1.7423                                                      
 INPUT CARD>C	6.0	-0.3664	-0.6168	1.8723                                                    
 INPUT CARD>C	6.0	-1.754	-0.5919	1.8022                                                     
     10000000 WORDS OF MEMORY AVAILABLE

     BASIS OPTIONS
     -------------
     GBASIS=PM3          IGAUSS=       0      POLAR=NONE    
     NDFUNC=       0     NFFUNC=       0     DIFFSP=       F
     NPFUNC=       0      DIFFS=       F     BASNAM=        


     RUN TITLE
     ---------
 C40 FULLERENE                                                                   

 THE POINT GROUP OF THE MOLECULE IS C1      
 THE ORDER OF THE PRINCIPAL AXIS IS     0

 ATOM      ATOMIC                      COORDINATES (BOHR)
           CHARGE         X                   Y                   Z
 C           6.0    -6.9511680732        0.6657504655        2.0828559837
 C           6.0    -4.7056066820        1.1017102508        3.2924695884
 C           6.0    -0.6923956019       -1.1655829892        3.5381339668
 C           6.0    -3.3145793825       -1.1185288121        3.4056641751
 C           6.0    -6.9868838944       -1.7871138666        1.2298336728
 C           6.0    -4.7125986682       -2.8151248039        1.9792989995
 C           6.0     3.3026741087       -2.9366341849        2.1327447497
 C           6.0     0.6850256705       -3.0806313052        2.1901924198
 C           6.0    -7.0407410851       -1.7852241406       -1.3481305196
 C           6.0    -4.7441570922       -2.8466832279       -2.0337231080
 C           6.0     3.3041858895       -2.9285083632       -2.0832339289
 C           6.0     0.6831359446       -3.0483169908       -2.1981292689
 C           6.0    -0.7063795742       -3.8643006723       -0.0071809588
 C           6.0    -3.3230831494       -3.7390118393       -0.0207869859
 C           6.0     4.7558733933       -3.4833319132        0.0232436296
 C           6.0    -7.0486779342        0.6850256705       -2.0873913260
 C           6.0    -4.7382989416        1.0676951831       -3.2442815757
 C           6.0     3.2985167116        1.1202295655       -3.3916802028
 C           6.0     0.6753880680        1.1652050440       -3.5315199259
 C           6.0    -0.7152612864       -1.1712521672       -3.5693144456
 C           6.0    -3.3347994505       -1.1415834692       -3.4464822564
 C           6.0     4.7398107224       -1.0610811421       -3.2388013704
 C           6.0    -6.9953876613        2.2158926932       -0.0062360958
 C           6.0    -4.7352753800        3.5016622552        0.0340150678
 C           6.0     3.3092881497        3.6161796501        0.0049132876
 C           6.0     0.6818131364        3.7777512221        0.0149288353
 C           6.0    -0.7196076561        3.0764739080       -2.2045543373
 C           6.0    -3.3342325327        2.9727279513       -2.1272645444
 C           6.0     4.7554954481        2.7924480921       -2.0161486563
 C           6.0     3.2966269856        1.1336466200        3.4268291061
 C           6.0     0.6786006022        1.1884486737        3.5717710894
 C           6.0     4.7142994216       -1.0569237449        3.2491948633
 C           6.0    -0.7075134098        3.1242839755        2.2657814593
 C           6.0    -3.3234610946        3.0303645939        2.1945387895
 C           6.0     4.7479365442        2.8069989822        2.0371246148
 C           6.0     6.9925530724       -0.6525223836        2.0690609840
 C           6.0     7.0309145099        1.8094126332        1.2632818228
 C           6.0     7.0605832079        1.7725629765       -1.3309340132
 C           6.0     7.0683310845       -0.7122377248       -2.0977848190
 C           6.0     7.0458433452       -2.2262861861       -0.0151178079

          INTERNUCLEAR DISTANCES (ANGS.)
          ------------------------------

                1 C          2 C          3 C          4 C          5 C     

   1 C       0.0000000    1.3693091 *  3.5357535    2.2549565 *  1.3743810 *
   2 C       1.3693091 *  0.0000000    2.4426465 *  1.3877396 *  2.2328519 *
   3 C       3.5357535    2.4426465 *  0.0000000    1.3895927 *  3.5630229  
   4 C       2.2549565 *  1.3877396 *  1.3895927 *  0.0000000    2.2863314 *
   5 C       1.3743810 *  2.2328519 *  3.5630229    2.2863314 *  0.0000000  
   6 C       2.1907177 *  2.1860890 *  2.4429992 *  1.3867487 *  1.3789996 *
   7 C       5.7512814    4.7856395    2.4291670 *  3.6934098    5.4996679  
   8 C       4.5013782    3.6572968    1.4377314 *  2.4436336 *  4.1483471  
   9 C       2.2317838 *  3.1450412    4.2519326    3.2156969    1.3644980 *
  10 C       3.0926013    3.5085539    3.7526264    3.1134850    2.1691952 *
  11 C       6.1586613    5.5323103    3.7672197    4.6499020    5.7528483  
  12 C       5.0314636    4.6256251    3.2766923    3.7830922    4.4955396  
  13 C       4.2296791    3.7991380    2.3578116 *  2.6977392 *  3.5612349  
  14 C       3.2184352    3.1892153    2.7091070 *  2.2826851 *  2.2942988 *
  15 C       6.6624174    5.8264807    3.6436476    4.7967304    6.3108766  
  16 C       2.2074267 *  3.1130069    4.5972565    3.6421068    2.1894944 *
  17 C       3.0599417    3.4591901    4.3430601    3.7801310    3.0501813  
  18 C       6.1537907    5.5182859    4.4012358    5.1563964    6.1621436  
  19 C       5.0184038    4.5988508    4.0051206    4.4039441    5.0229232  
  20 C       4.5585523    4.3692642    3.7611207    3.9390684    4.1916837  
  21 C       3.6246965    3.8278559    3.9517793    3.6260363    3.1583664  
  22 C       6.8585326    6.1837045    4.5964349    5.5254169    6.6518904  
  23 C       1.3767970 *  2.2052130 *  4.2243012    3.1886071    2.2169939 *
  24 C       2.1914792 *  2.1415782 *  3.7570431    3.1186710    3.1069003  
  25 C       5.7556350    4.7734346    3.7924836    4.6693166    6.1872378  
  26 C       4.4971746    3.6250674    3.2935907    3.7954147    5.0550315  
  27 C       4.2010748    3.7420410    3.7781275    3.9531516    4.5744996  
  28 C       3.1807683    3.1196735    3.9671236    3.6414189    3.6381875  
  29 C       6.6594524    5.8101752    4.6191925    5.5454620    6.8872833  
  30 C       5.4749389    4.2352306    2.4371555 *  3.6959457    5.7752667  
  31 C       4.1229480    2.8534001 *  1.4416780 *  2.4419809 *  4.5243354  
  32 C       6.2704955    5.1140595    2.8657596 *  4.2496318    6.2954011  
  33 C       3.5522369    2.4324686 *  2.3678579 *  2.7033441 *  4.2540556  
  34 C       2.2922680 *  1.3835213 *  2.7155472 *  2.2871369 *  3.2431020  
  35 C       6.2937861    5.1265609    3.6521531    4.8002774    6.6823920  
  36 C       7.4116066    6.2930056    4.1492303    5.5054948    7.4351994  
  37 C       7.4363676    6.3139600    4.5421497    5.8014792    7.6581802  
  38 C       7.6540357    6.6992487    5.0880662    6.2262774    7.7873635  
  39 C       7.7758985    6.9193008    5.0811483    6.2222301    7.6644428  
  40 C       7.6443990    6.6959696    4.5407920    5.8032974    7.4585879  

                6 C          7 C          8 C          9 C         10 C     

   1 C       2.1907177 *  5.7512814    4.5013782    2.2317838 *  3.0926013  
   2 C       2.1860890 *  4.7856395    3.6572968    3.1450412    3.5085539  
   3 C       2.4429992 *  2.4291670 *  1.4377314 *  4.2519326    3.7526264  
   4 C       1.3867487 *  3.6934098    2.4436336 *  3.2156969    3.1134850  
   5 C       1.3789996 *  5.4996679    4.1483471    1.3644980 *  2.1691952 *
   6 C       0.0000000    4.2427645    2.8619302 *  2.2170398 *  2.1237313 *
   7 C       4.2427645    0.0000000    1.3876273 *  5.8071863    4.7953807  
   8 C       2.8619302 *  1.3876273 *  0.0000000    4.5486249    3.6421936  
   9 C       2.2170398 *  5.8071863    4.5486249    0.0000000    1.3871138 *
  10 C       2.1237313 *  4.7953807    3.6421936    1.3871138 *  0.0000000  
  11 C       4.7562958    2.2310043 *  2.6535648 *  5.5213501    4.2593007  
  12 C       3.6131313    2.6790652 *  2.3222632 *  4.1659453    2.8752979 *
  13 C       2.4305696 *  2.4543991 *  1.4374344 *  3.5985936    2.4506144 *
  14 C       1.3783686 *  3.7111200    2.4472277 *  2.3307905 *  1.3867689 *
  15 C       5.1285061    1.3860668 *  2.4496755 *  6.3484588    5.1547137  
  16 C       3.0967627    6.2181470    5.0836301    1.3644878 *  2.2317648 *
  17 C       3.4442385    5.5400666    4.6179492    2.1841484 *  2.1681965 *
  18 C       5.5124016    3.6269853    3.9470688    5.7851928    4.7996419  
  19 C       4.5902139    3.9533334    3.7703725    4.5216290    3.6551599  
  20 C       3.7218934    3.8076448    3.2953109    3.5625191    2.4478158 *
  21 C       3.0918706    4.6857155    3.8045968    2.2792345 *  1.3889812 *
  22 C       5.7884659    3.1053539    3.7416176    6.3253931    5.1465374  
  23 C       3.1066181    6.1977896    5.0719980    2.2333332 *  3.1220748  
  24 C       3.4976352    5.5617752    4.6542140    3.1385460    3.5331097  
  25 C       5.5402241    3.6458385    3.9779727    6.2193299    5.5697663  
  26 C       4.6261244    3.9754220    3.8074733    5.0878809    4.6592024  
  27 C       4.3688234    4.4635837    4.0714589    4.2441961    3.7905485  
  28 C       3.8255891    5.2149275    4.4726601    3.2181358    3.1689802  
  29 C       6.1950652    3.8213190    4.3878684    6.7051691    5.8459959  
  30 C       4.7871047    2.2601430 *  2.7039803 *  6.2205056    5.5579954  
  31 C       3.6520744    2.6968768 *  2.3744582 *  5.0932148    4.6468318  
  32 C       5.1188241    1.3771281 *  2.4509492 *  6.6904162    5.8107147  
  33 C       3.7938487    3.8464318    3.3654114    4.6517480    4.4410767  
  34 C       3.1814855    4.7187231    3.8674225    3.7252940    3.9043193  
  35 C       5.8236755    3.1345545    3.7862943    6.9304319    6.2307282  
  36 C       6.2991097    2.2966798 *  3.5771477    7.6665631    6.6810078  
  37 C       6.6896278    3.2267102    4.2677415    7.8087698    6.9239720  
  38 C       6.9120421    3.6775150    4.6314214    7.6959456    6.7183265  
  39 C       6.6901704    3.2199682    4.2579084    7.4982605    6.3522177  
  40 C       6.3188592    2.3144608 *  3.5911334    7.4912384    6.3382926  

               11 C         12 C         13 C         14 C         15 C     

   1 C       6.1586613    5.0314636    4.2296791    3.2184352    6.6624174  
   2 C       5.5323103    4.6256251    3.7991380    3.1892153    5.8264807  
   3 C       3.7672197    3.2766923    2.3578116 *  2.7091070 *  3.6436476  
   4 C       4.6499020    3.7830922    2.6977392 *  2.2826851 *  4.7967304  
   5 C       5.7528483    4.4955396    3.5612349    2.2942988 *  6.3108766  
   6 C       4.7562958    3.6131313    2.4305696 *  1.3783686 *  5.1285061  
   7 C       2.2310043 *  2.6790652 *  2.4543991 *  3.7111200    1.3860668 *
   8 C       2.6535648 *  2.3222632 *  1.4374344 *  2.4472277 *  2.4496755 *
   9 C       5.5213501    4.1659453    3.5985936    2.3307905 *  6.3484588  
  10 C       4.2593007    2.8752979 *  2.4506144 *  1.3867689 *  5.1547137  
  11 C       0.0000000    1.3897788 *  2.4405537 *  3.6978586    1.3852394 *
  12 C       1.3897788 *  0.0000000    1.4392101 *  2.4404006 *  2.4657006 *
  13 C       2.4405537 *  1.4392101 *  0.0000000    1.3863050 *  2.8975666 *
  14 C       3.6978586    2.4404006 *  1.3863050 *  0.0000000    4.2774039  
  15 C       1.3852394 *  2.4657006 *  2.8975666 *  4.2774039    0.0000000  
  16 C       5.8026266    4.5438752    4.2745074    3.2501573    6.7182051  
  17 C       4.7918815    3.6443353    3.7812955    3.1528568    5.8336332  
  18 C       2.2516068 *  2.6796211 *  3.8283906    4.6980907    3.1296874  
  19 C       2.6861467 *  2.3386856 *  3.3311350    3.8292972    3.7752115  
  20 C       2.4509729 *  1.4355279 *  2.3630821 *  2.6975675 *  3.6733250  
  21 C       3.7090634    2.4444222 *  2.7060871 *  2.2749797 *  4.8205047  
  22 C       1.3883860 *  2.4530499 *  3.6648113    4.8075742    2.1500814 *
  23 C       6.1906953    5.0612152    4.6290269    3.7022339    6.9112689  
  24 C       5.5617202    4.6508593    4.4429184    3.9039028    6.2360382  
  25 C       3.6353101    3.9658503    4.4928152    5.2409350    3.8341077  
  26 C       3.9689367    3.7972970    4.1101959    4.5070930    4.4059008  
  27 C       3.8256787    3.3250188    3.8525767    4.0300164    4.6728188  
  28 C       4.7003073    3.8304996    4.0351396    3.7225212    5.5941622  
  29 C       3.1234972    3.7691303    4.6789664    5.5979067    3.4919498  
  30 C       3.6225248    3.9585610    3.8450459    4.7167899    3.1320090  
  31 C       3.9537054    3.7880352    3.3575595    3.8597237    3.7806274  
  32 C       3.0822495    3.7377024    3.6612454    4.8060802    2.1361953 *
  33 C       4.4791021    4.0976709    3.8888831    4.0706916    4.6896618  
  34 C       5.2314520    4.4995230    4.0727090    3.7691437    5.6107367  
  35 C       3.8144033    4.3875370    4.6865805    5.6059484    3.4951363  
  36 C       3.1761974    4.2253897    4.5490738    5.8042382    2.1947519 *
  37 C       3.6484678    4.6094102    5.1215725    6.2532344    3.1184057  
  38 C       3.2091251    4.2553467    5.1265305    6.2593967    3.1203476  
  39 C       2.3115330 *  3.5983295    4.5752339    5.8319263    2.2152996 *
  40 C       2.2926399 *  3.5861401    4.1928779    5.5450860    1.3825203 *

               16 C         17 C         18 C         19 C         20 C     

   1 C       2.2074267 *  3.0599417    6.1537907    5.0184038    4.5585523  
   2 C       3.1130069    3.4591901    5.5182859    4.5988508    4.3692642  
   3 C       4.5972565    4.3430601    4.4012358    4.0051206    3.7611207  
   4 C       3.6421068    3.7801310    5.1563964    4.4039441    3.9390684  
   5 C       2.1894944 *  3.0501813    6.1621436    5.0229232    4.1916837  
   6 C       3.0967627    3.4442385    5.5124016    4.5902139    3.7218934  
   7 C       6.2181470    5.5400666    3.6269853    3.9533334    3.8076448  
   8 C       5.0836301    4.6179492    3.9470688    3.7703725    3.2953109  
   9 C       1.3644878 *  2.1841484 *  5.7851928    4.5216290    3.5625191  
  10 C       2.2317648 *  2.1681965 *  4.7996419    3.6551599    2.4478158 *
  11 C       5.8026266    4.7918815    2.2516068 *  2.6861467 *  2.4509729 *
  12 C       4.5438752    3.6443353    2.6796211 *  2.3386856 *  1.4355279 *
  13 C       4.2745074    3.7812955    3.8283906    3.3311350    2.3630821 *
  14 C       3.2501573    3.1528568    4.6980907    3.8292972    2.6975675 *
  15 C       6.7182051    5.8336332    3.1296874    3.7752115    3.6733250  
  16 C       0.0000000    1.3822250 *  5.5236324    4.1659821    3.5794462  
  17 C       1.3822250 *  0.0000000    4.2537061    2.8692936 *  2.4424476 *
  18 C       5.5236324    4.2537061    0.0000000    1.3902748 *  2.4475724 *
  19 C       4.1659821    2.8692936 *  1.3902748 *  0.0000000    1.4389697 *
  20 C       3.5794462    2.4424476 *  2.4475724 *  1.4389697 *  0.0000000  
  21 C       2.3052046 *  1.3891894 *  3.7087619    2.4485591 *  1.3878119 *
  22 C       6.3356264    5.1405500    1.3858804 *  2.4572046 *  2.8925812 *
  23 C       1.3674498 *  2.1752819 *  5.7635681    4.5018142    4.2204420  
  24 C       2.2317004 *  2.1606660 *  4.7903966    3.6450807    3.7783636  
  25 C       5.8030472    4.7865157    2.2305138 *  2.6696489 *  3.8119721  
  26 C       4.5443108    3.6411268    2.6729761 *  2.3309485 *  3.3170277  
  27 C       3.5808483    2.4403108 *  2.4469217 *  1.4356023 *  2.3609708 *
  28 C       2.3085885 *  1.3848154 *  3.7051425    2.4431793 *  2.7040434 *
  29 C       6.3453806    5.1473258    1.3810603 *  2.4589123 *  3.6682490  
  30 C       6.2081586    5.5264983    3.6082071    3.9348344    4.4385901  
  31 C       5.0754247    4.6076711    3.9372447    3.7589205    4.0476401  
  32 C       6.8972155    6.1719142    3.7733588    4.3388906    4.6128132  
  33 C       4.2699870    3.7730592    3.8185697    3.3198908    3.8342547  
  34 C       3.2497163    3.1500319    4.6946418    3.8253829    4.0189015  
  35 C       6.7077160    5.8187146    3.1045134    3.7527190    4.6466816  
  36 C       7.7812685    6.8753067    3.6127055    4.5698741    5.0610696  
  37 C       7.6817543    6.6806958    3.1783444    4.2267267    5.0823498  
  38 C       7.4991384    6.3362509    2.2960048 *  3.5883594    4.5564636  
  39 C       7.5069047    6.3474613    2.3213699 *  3.6065714    4.1988941  
  40 C       7.6944917    6.6966293    3.2032843    4.2482749    4.5515444  

               21 C         22 C         23 C         24 C         25 C     

   1 C       3.6246965    6.8585326    1.3767970 *  2.1914792 *  5.7556350  
   2 C       3.8278559    6.1837045    2.2052130 *  2.1415782 *  4.7734346  
   3 C       3.9517793    4.5964349    4.2243012    3.7570431    3.7924836  
   4 C       3.6260363    5.5254169    3.1886071    3.1186710    4.6693166  
   5 C       3.1583664    6.6518904    2.2169939 *  3.1069003    6.1872378  
   6 C       3.0918706    5.7884659    3.1066181    3.4976352    5.5402241  
   7 C       4.6857155    3.1053539    6.1977896    5.5617752    3.6458385  
   8 C       3.8045968    3.7416176    5.0719980    4.6542140    3.9779727  
   9 C       2.2792345 *  6.3253931    2.2333332 *  3.1385460    6.2193299  
  10 C       1.3889812 *  5.1465374    3.1220748    3.5331097    5.5697663  
  11 C       3.7090634    1.3883860 *  6.1906953    5.5617202    3.6353101  
  12 C       2.4444222 *  2.4530499 *  5.0612152    4.6508593    3.9658503  
  13 C       2.7060871 *  3.6648113    4.6290269    4.4429184    4.4928152  
  14 C       2.2749797 *  4.8075742    3.7022339    3.9039028    5.2409350  
  15 C       4.8205047    2.1500814 *  6.9112689    6.2360382    3.8341077  
  16 C       2.3052046 *  6.3356264    1.3674498 *  2.2317004 *  5.8030472  
  17 C       1.3891894 *  5.1405500    2.1752819 *  2.1606660 *  4.7865157  
  18 C       3.7087619    1.3858804 *  5.7635681    4.7903966    2.2305138 *
  19 C       2.4485591 *  2.4572046 *  4.5018142    3.6450807    2.6696489 *
  20 C       1.3878119 *  2.8925812 *  4.2204420    3.7783636    3.8119721  
  21 C       0.0000000    4.2745254    3.1973801    3.1589234    4.6942628  
  22 C       4.2745254    0.0000000    6.6706338    5.8283346    3.1057272  
  23 C       3.1973801    6.6706338    0.0000000    1.3761591 *  5.5031196  
  24 C       3.1589234    5.8283346    1.3761591 *  0.0000000    4.2574592  
  25 C       4.6942628    3.1057272    5.5031196    4.2574592    0.0000000  
  26 C       3.8274698    3.7593343    4.1458348    2.8703384 *  1.3930364 *
  27 C       2.7072793 *  3.6660290    3.5481963    2.4432616 *  2.4482688 *
  28 C       2.2863822 *  4.8122352    2.2745771 *  1.3914265 *  3.7078895  
  29 C       4.8203177    2.1393958 *  6.3159786    5.1518303    1.3854686 *
  30 C       5.1955100    3.7912970    5.7697979    4.7810847    2.2371520 *
  31 C       4.4524003    4.3617083    4.5134778    3.6346707    2.6741452 *
  32 C       5.5406463    3.4333272    6.6606145    5.8068023    3.1008755  
  33 C       4.0207100    4.6582946    3.5704606    2.4448941 *  2.4530194 *
  34 C       3.7127883    5.5821921    2.3060121 *  1.3883421 *  3.7091891  
  35 C       5.5750241    3.4618671    6.3154238    5.1421848    1.3854307 *
  36 C       6.2009686    3.0589544    7.6355188    6.6714252    3.1772219  
  37 C       6.2240397    3.0745901    7.4558437    6.3240120    2.2882496 *
  38 C       5.8217140    2.1854112 *  7.4747421    6.3500201    2.3220950 *
  39 C       5.5558180    1.3845463 *  7.6819462    6.7275611    3.2313168  
  40 C       5.8139360    2.1861890 *  7.7932773    6.9321526    3.6699369  

               26 C         27 C         28 C         29 C         30 C     

   1 C       4.4971746    4.2010748    3.1807683    6.6594524    5.4749389  
   2 C       3.6250674    3.7420410    3.1196735    5.8101752    4.2352306  
   3 C       3.2935907    3.7781275    3.9671236    4.6191925    2.4371555 *
   4 C       3.7954147    3.9531516    3.6414189    5.5454620    3.6959457  
   5 C       5.0550315    4.5744996    3.6381875    6.8872833    5.7752667  
   6 C       4.6261244    4.3688234    3.8255891    6.1950652    4.7871047  
   7 C       3.9754220    4.4635837    5.2149275    3.8213190    2.2601430 *
   8 C       3.8074733    4.0714589    4.4726601    4.3878684    2.7039803 *
   9 C       5.0878809    4.2441961    3.2181358    6.7051691    6.2205056  
  10 C       4.6592024    3.7905485    3.1689802    5.8459959    5.5579954  
  11 C       3.9689367    3.8256787    4.7003073    3.1234972    3.6225248  
  12 C       3.7972970    3.3250188    3.8304996    3.7691303    3.9585610  
  13 C       4.1101959    3.8525767    4.0351396    4.6789664    3.8450459  
  14 C       4.5070930    4.0300164    3.7225212    5.5979067    4.7167899  
  15 C       4.4059008    4.6728188    5.5941622    3.4919498    3.1320090  
  16 C       4.5443108    3.5808483    2.3085885 *  6.3453806    6.2081586  
  17 C       3.6411268    2.4403108 *  1.3848154 *  5.1473258    5.5264983  
  18 C       2.6729761 *  2.4469217 *  3.7051425    1.3810603 *  3.6082071  
  19 C       2.3309485 *  1.4356023 *  2.4431793 *  2.4589123 *  3.9348344  
  20 C       3.3170277    2.3609708 *  2.7040434 *  3.6682490    4.4385901  
  21 C       3.8274698    2.7072793 *  2.2863822 *  4.8203177    5.1955100  
  22 C       3.7593343    3.6660290    4.8122352    2.1393958 *  3.7912970  
  23 C       4.1458348    3.5481963    2.2745771 *  6.3159786    5.7697979  
  24 C       2.8703384 *  2.4432616 *  1.3914265 *  5.1518303    4.7810847  
  25 C       1.3930364 *  2.4482688 *  3.7078895    1.3854686 *  2.2371520 *
  26 C       0.0000000    1.4377538 *  2.4460172 *  2.4645680 *  2.6706210 *
  27 C       1.4377538 *  0.0000000    1.3852927 *  2.9029085 *  3.8018798  
  28 C       2.4460172 *  1.3852927 *  0.0000000    4.2823666    4.6795092  
  29 C       2.4645680 *  2.9029085 *  4.2823666    0.0000000    3.1084795  
  30 C       2.6706210 *  3.8018798    4.6795092    3.1084795    0.0000000  
  31 C       2.3281168 *  3.2998587    3.8073371    3.7574839    1.3878246 *
  32 C       3.7454201    4.6240434    5.5481219    3.4515666    1.3839728 *
  33 C       1.4418099 *  2.3657439 *  2.7097531 *  3.6772872    2.4447650 *
  34 C       2.4452059 *  2.7052398 *  2.2872105 *  4.8226612    3.7020344  
  35 C       2.4574000 *  3.6646622    4.8120535    2.1449176 *  1.3837440 *
  36 C       4.2225633    5.0659325    6.2027630    3.0656306    2.2879683 *
  37 C       3.5790472    4.5429775    5.8037352    2.1753340 *  2.3116325 *
  38 C       3.6093160    4.2000397    5.5532540    1.3822687 *  3.2280632  
  39 C       4.2798360    4.5833509    5.8399971    2.2224623 *  3.6721393  
  40 C       4.6299304    5.1090995    6.2442217    3.1053964    3.2272338  

               31 C         32 C         33 C         34 C         35 C     

   1 C       4.1229480    6.2704955    3.5522369    2.2922680 *  6.2937861  
   2 C       2.8534001 *  5.1140595    2.4324686 *  1.3835213 *  5.1265609  
   3 C       1.4416780 *  2.8657596 *  2.3678579 *  2.7155472 *  3.6521531  
   4 C       2.4419809 *  4.2496318    2.7033441 *  2.2871369 *  4.8002774  
   5 C       4.5243354    6.2954011    4.2540556    3.2431020    6.6823920  
   6 C       3.6520744    5.1188241    3.7938487    3.1814855    5.8236755  
   7 C       2.6968768 *  1.3771281 *  3.8464318    4.7187231    3.1345545  
   8 C       2.3744582 *  2.4509492 *  3.3654114    3.8674225    3.7862943  
   9 C       5.0932148    6.6904162    4.6517480    3.7252940    6.9304319  
  10 C       4.6468318    5.8107147    4.4410767    3.9043193    6.2307282  
  11 C       3.9537054    3.0822495    4.4791021    5.2314520    3.8144033  
  12 C       3.7880352    3.7377024    4.0976709    4.4995230    4.3875370  
  13 C       3.3575595    3.6612454    3.8888831    4.0727090    4.6865805  
  14 C       3.8597237    4.8060802    4.0706916    3.7691437    5.6059484  
  15 C       3.7806274    2.1361953 *  4.6896618    5.6107367    3.4951363  
  16 C       5.0754247    6.8972155    4.2699870    3.2497163    6.7077160  
  17 C       4.6076711    6.1719142    3.7730592    3.1500319    5.8187146  
  18 C       3.9372447    3.7733588    3.8185697    4.6946418    3.1045134  
  19 C       3.7589205    4.3388906    3.3198908    3.8253829    3.7527190  
  20 C       4.0476401    4.6128132    3.8342547    4.0189015    4.6466816  
  21 C       4.4524003    5.5406463    4.0207100    3.7127883    5.5750241  
  22 C       4.3617083    3.4333272    4.6582946    5.5821921    3.4618671  
  23 C       4.5134778    6.6606145    3.5704606    2.3060121 *  6.3154238  
  24 C       3.6346707    5.8068023    2.4448941 *  1.3883421 *  5.1421848  
  25 C       2.6741452 *  3.1008755    2.4530194 *  3.7091891    1.3854307 *
  26 C       2.3281168 *  3.7454201    1.4418099 *  2.4452059 *  2.4574000 *
  27 C       3.2998587    4.6240434    2.3657439 *  2.7052398 *  3.6646622  
  28 C       3.8073371    5.5481219    2.7097531 *  2.2872105 *  4.8120535  
  29 C       3.7574839    3.4515666    3.6772872    4.8226612    2.1449176 *
  30 C       1.3878246 *  1.3839728 *  2.4447650 *  3.7020344    1.3837440 *
  31 C       0.0000000    2.4498459 *  1.4370236 *  2.4425942 *  2.4556527 *
  32 C       2.4498459 *  0.0000000    3.6603483    4.8042714    2.1430140 *
  33 C       1.4370236 *  3.6603483    0.0000000    1.3857048 *  2.8943087 *
  34 C       2.4425942 *  4.8042714    1.3857048 *  0.0000000    4.2736471  
  35 C       2.4556527 *  2.1430140 *  2.8943087 *  4.2736471    0.0000000  
  36 C       3.5700177    1.3745063 *  4.5396496    5.7968354    2.1823421 *
  37 C       3.5916524    2.2153789 *  4.1874327    5.5392261    1.3805341 *
  38 C       4.2698869    3.1077000    4.5860723    5.8411054    2.2302301 *
  39 C       4.6309851    3.0969515    5.1366559    6.2707048    3.1246890  
  40 C       4.2685933    2.2111279 *  5.1290802    6.2621467    3.1228648  

               36 C         37 C         38 C         39 C         40 C     

   1 C       7.4116066    7.4363676    7.6540357    7.7758985    7.6443990  
   2 C       6.2930056    6.3139600    6.6992487    6.9193008    6.6959696  
   3 C       4.1492303    4.5421497    5.0880662    5.0811483    4.5407920  
   4 C       5.5054948    5.8014792    6.2262774    6.2222301    5.8032974  
   5 C       7.4351994    7.6581802    7.7873635    7.6644428    7.4585879  
   6 C       6.2991097    6.6896278    6.9120421    6.6901704    6.3188592  
   7 C       2.2966798 *  3.2267102    3.6775150    3.2199682    2.3144608 *
   8 C       3.5771477    4.2677415    4.6314214    4.2579084    3.5911334  
   9 C       7.6665631    7.8087698    7.6959456    7.4982605    7.4912384  
  10 C       6.6810078    6.9239720    6.7183265    6.3522177    6.3382926  
  11 C       3.1761974    3.6484678    3.2091251    2.3115330 *  2.2926399 *
  12 C       4.2253897    4.6094102    4.2553467    3.5983295    3.5861401  
  13 C       4.5490738    5.1215725    5.1265305    4.5752339    4.1928779  
  14 C       5.8042382    6.2532344    6.2593967    5.8319263    5.5450860  
  15 C       2.1947519 *  3.1184057    3.1203476    2.2152996 *  1.3825203 *
  16 C       7.7812685    7.6817543    7.4991384    7.5069047    7.6944917  
  17 C       6.8753067    6.6806958    6.3362509    6.3474613    6.6966293  
  18 C       3.6127055    3.1783444    2.2960048 *  2.3213699 *  3.2032843  
  19 C       4.5698741    4.2267267    3.5883594    3.6065714    4.2482749  
  20 C       5.0610696    5.0823498    4.5564636    4.1988941    4.5515444  
  21 C       6.2009686    6.2240397    5.8217140    5.5558180    5.8139360  
  22 C       3.0589544    3.0745901    2.1854112 *  1.3845463 *  2.1861890 *
  23 C       7.6355188    7.4558437    7.4747421    7.6819462    7.7932773  
  24 C       6.6714252    6.3240120    6.3500201    6.7275611    6.9321526  
  25 C       3.1772219    2.2882496 *  2.3220950 *  3.2313168    3.6699369  
  26 C       4.2225633    3.5790472    3.6093160    4.2798360    4.6299304  
  27 C       5.0659325    4.5429775    4.2000397    4.5833509    5.1090995  
  28 C       6.2027630    5.8037352    5.5532540    5.8399971    6.2442217  
  29 C       3.0656306    2.1753340 *  1.3822687 *  2.2224623 *  3.1053964  
  30 C       2.2879683 *  2.3116325 *  3.2280632    3.6721393    3.2272338  
  31 C       3.5700177    3.5916524    4.2698869    4.6309851    4.2685933  
  32 C       1.3745063 *  2.2153789 *  3.1077000    3.0969515    2.2111279 *
  33 C       4.5396496    4.1874327    4.5860723    5.1366559    5.1290802  
  34 C       5.7968354    5.5392261    5.8411054    6.2707048    6.2621467  
  35 C       2.1823421 *  1.3805341 *  2.2302301 *  3.1246890    3.1228648  
  36 C       0.0000000    1.3709547 *  2.2102659 *  2.2055910 *  1.3822950 *
  37 C       1.3709547 *  0.0000000    1.3730283 *  2.2236082 *  2.2402013 *
  38 C       2.2102659 *  1.3730283 *  0.0000000    1.3761005 *  2.2277284 *
  39 C       2.2055910 *  2.2236082 *  1.3761005 *  0.0000000    1.3626032 *
  40 C       1.3822950 *  2.2402013 *  2.2277284 *  1.3626032 *  0.0000000  

  * ... LESS THAN  3.000


 TOTAL NUMBER OF BASIS SET SHELLS             =   40
 NUMBER OF CARTESIAN GAUSSIAN BASIS FUNCTIONS =  160
 NUMBER OF ELECTRONS                          =  160
 CHARGE OF MOLECULE                           =    0
 SPIN MULTIPLICITY                            =    1
 NUMBER OF OCCUPIED ORBITALS (ALPHA)          =   80
 NUMBER OF OCCUPIED ORBITALS (BETA )          =   80
 TOTAL NUMBER OF ATOMS                        =   40
 THE NUCLEAR REPULSION ENERGY IS     4491.0481107466

 THE PARAMETERS USED IN THIS CALCULATION ARE DESCRIBED IN:

  C: (PM3): J. J. P. STEWART, J. COMP. CHEM. 10, 209 (1989).                    

 THERE ARE   40 HEAVY AND    0 LIGHT ATOMS,
 YIELDING A TOTAL OF     78000 MOPAC 2E- INTEGRALS.

     $CONTRL OPTIONS
     ---------------
 SCFTYP=RHF          RUNTYP=OPTIMIZE     EXETYP=RUN     
 MPLEVL=       0     CITYP =NONE         CCTYP =NONE         VBTYP =NONE    
 DFTTYP=NONE         TDDFT =NONE    
 MULT  =       1     ICHARG=       0     NZVAR =       0     COORD =UNIQUE  
 PP    =NONE         RELWFN=NONE         LOCAL =NONE         NUMGRD=       F
 ISPHER=      -1     NOSYM =       0     MAXIT =     200     UNITS =ANGS    
 PLTORB=       F     MOLPLT=       F     AIMPAC=       F     FRIEND=        
 NPRINT=       7     IREST =       0     GEOM  =INPUT   
 NORMF =       0     NORMP =       0     ITOL  =      20     ICUT  =       9
 INTTYP=BEST         GRDTYP=BEST         QMTTOL= 1.0E-06

     $SYSTEM OPTIONS
     ---------------
  REPLICATED MEMORY=    10000000 WORDS (ON EVERY NODE).
 DISTRIBUTED MEMDDI=           0 MILLION WORDS IN AGGREGATE,
 MEMDDI DISTRIBUTED OVER   2 PROCESSORS IS           0 WORDS/PROCESSOR.
 TOTAL MEMORY REQUESTED ON EACH PROCESSOR=    10000000 WORDS.
 TIMLIM=      525600.00 MINUTES, OR     365.0 DAYS.
 PARALL= T  BALTYP=  DLB     KDIAG=    0  COREFL= F
 MXSEQ2=     300 MXSEQ3=     150  mem10=         0  mem22=         0

          ----------------
          PROPERTIES INPUT
          ----------------

     MOMENTS            FIELD           POTENTIAL          DENSITY
 IEMOM =       1   IEFLD =       0   IEPOT =       0   IEDEN =       0
 WHERE =COMASS     WHERE =NUCLEI     WHERE =NUCLEI     WHERE =NUCLEI  
 OUTPUT=BOTH       OUTPUT=BOTH       OUTPUT=BOTH       OUTPUT=BOTH    
 IEMINT=       0   IEFINT=       0                     IEDINT=       0
                                                       MORB  =       0
          EXTRAPOLATION IN EFFECT
          SOSCF IN EFFECT
 ORBITAL PRINTING OPTION: NPREO=     1   160     2     1

     -------------------------------
     INTEGRAL TRANSFORMATION OPTIONS
     -------------------------------
     NWORD  =            0
     CUTTRF = 1.0E-09     MPTRAN =       0
     DIRTRF =       T     AOINTS =DUP     

          ----------------------
          INTEGRAL INPUT OPTIONS
          ----------------------
 NOPK  =       1 NORDER=       0 SCHWRZ=       T

     ------------------------------------------
     THE POINT GROUP IS C1 , NAXIS= 0, ORDER= 1
     ------------------------------------------

     DIMENSIONS OF THE SYMMETRY SUBSPACES ARE
 A   =  160

 ..... DONE SETTING UP THE RUN .....
 CPU     0: STEP CPU TIME=     0.00 TOTAL CPU TIME=          0.0 (      0.0 MIN)
 TOTAL WALL CLOCK TIME=          0.0 SECONDS, CPU UTILIZATION IS     0.00%


          -----------------------------
          STATIONARY POINT LOCATION RUN
          -----------------------------

 OBTAINING INITIAL HESSIAN, HESS=GUESS   
 CARTESIAN COORDINATE OPTIMIZATION USING BADGER'S RULE FORCE CONSTANT GUESS

          PARAMETERS CONTROLLING GEOMETRY SEARCH ARE
          METHOD =QA                  UPHESS =BFGS    
          NNEG   =         0          NFRZ   =         0
          NSTEP  =       100          IFOLOW =         1
          HESS   =GUESS               RESTAR =         F
          IHREP  =         0          HSSEND =         F
          NPRT   =         0          NPUN   =         0
          OPTTOL = 1.000E-03          RMIN   = 1.500E-03
          RMAX   = 1.000E-01          RLIM   = 7.000E-02
          DXMAX  = 3.000E-01          PURIFY =         F
          MOVIE  =         F          TRUPD  =         T
          TRMAX  = 5.000E-01          TRMIN  = 5.000E-02
          ITBMAT =         5          STPT   =         F
          STSTEP = 1.000E-02          PROJCT=          T

 BEGINNING GEOMETRY SEARCH POINT NSERCH=   0 ...

 COORDINATES OF ALL ATOMS ARE (ANGS)
   ATOM   CHARGE       X              Y              Z
 ------------------------------------------------------------
 C           6.0  -3.6784000000   0.3523000000   1.1022000000
 C           6.0  -2.4901000000   0.5830000000   1.7423000000
 C           6.0  -0.3664000000  -0.6168000000   1.8723000000
 C           6.0  -1.7540000000  -0.5919000000   1.8022000000
 C           6.0  -3.6973000000  -0.9457000000   0.6508000000
 C           6.0  -2.4938000000  -1.4897000000   1.0474000000
 C           6.0   1.7477000000  -1.5540000000   1.1286000000
 C           6.0   0.3625000000  -1.6302000000   1.1590000000
 C           6.0  -3.7258000000  -0.9447000000  -0.7134000000
 C           6.0  -2.5105000000  -1.5064000000  -1.0762000000
 C           6.0   1.7485000000  -1.5497000000  -1.1024000000
 C           6.0   0.3615000000  -1.6131000000  -1.1632000000
 C           6.0  -0.3738000000  -2.0449000000  -0.0038000000
 C           6.0  -1.7585000000  -1.9786000000  -0.0110000000
 C           6.0   2.5167000000  -1.8433000000   0.0123000000
 C           6.0  -3.7300000000   0.3625000000  -1.1046000000
 C           6.0  -2.5074000000   0.5650000000  -1.7168000000
 C           6.0   1.7455000000   0.5928000000  -1.7948000000
 C           6.0   0.3574000000   0.6166000000  -1.8688000000
 C           6.0  -0.3785000000  -0.6198000000  -1.8888000000
 C           6.0  -1.7647000000  -0.6041000000  -1.8238000000
 C           6.0   2.5082000000  -0.5615000000  -1.7139000000
 C           6.0  -3.7018000000   1.1726000000  -0.0033000000
 C           6.0  -2.5058000000   1.8530000000   0.0180000000
 C           6.0   1.7512000000   1.9136000000   0.0026000000
 C           6.0   0.3608000000   1.9991000000   0.0079000000
 C           6.0  -0.3808000000   1.6280000000  -1.1666000000
 C           6.0  -1.7644000000   1.5731000000  -1.1257000000
 C           6.0   2.5165000000   1.4777000000  -1.0669000000
 C           6.0   1.7445000000   0.5999000000   1.8134000000
 C           6.0   0.3591000000   0.6289000000   1.8901000000
 C           6.0   2.4947000000  -0.5593000000   1.7194000000
 C           6.0  -0.3744000000   1.6533000000   1.1990000000
 C           6.0  -1.7587000000   1.6036000000   1.1613000000
 C           6.0   2.5125000000   1.4854000000   1.0780000000
 C           6.0   3.7003000000  -0.3453000000   1.0949000000
 C           6.0   3.7206000000   0.9575000000   0.6685000000
 C           6.0   3.7363000000   0.9380000000  -0.7043000000
 C           6.0   3.7404000000  -0.3769000000  -1.1101000000
 C           6.0   3.7285000000  -1.1781000000  -0.0080000000

          ********************
          1 ELECTRON INTEGRALS
          ********************

          **************************
          1 AND 2 ELECTRON INTEGRALS
          **************************

 MOPAC ONE- AND TWO-ELECTRON INTEGRALS REQUIRE    103760 WORDS.
 ...... END OF ONE- AND TWO-ELECTRON INTEGRALS......
 CPU     0: STEP CPU TIME=     0.02 TOTAL CPU TIME=          0.0 (      0.0 MIN)
 TOTAL WALL CLOCK TIME=          0.0 SECONDS, CPU UTILIZATION IS    53.88%
 ...... END OF ONE-ELECTRON INTEGRALS ......
 CPU     0: STEP CPU TIME=     0.00 TOTAL CPU TIME=          0.0 (      0.0 MIN)
 TOTAL WALL CLOCK TIME=          0.0 SECONDS, CPU UTILIZATION IS    53.88%

          -------------
          GUESS OPTIONS
          -------------
          GUESS =HUCKEL            NORB  =       0          NORDER=       0
          MIX   =       F          PRTMO =       F          PUNMO =       F
          TOLZ  = 1.0E-08          TOLE  = 1.0E-05
          SYMDEN=       F          PURIFY=       F

 INITIAL GUESS ORBITALS GENERATED BY HUCKEL   ROUTINE.

 SYMMETRIES FOR INITIAL GUESS ORBITALS FOLLOW.   BOTH SET(S).
    80 ORBITALS ARE OCCUPIED (    0 CORE ORBITALS).
     1=A        2=A        3=A        4=A        5=A        6=A        7=A   
     8=A        9=A       10=A       11=A       12=A       13=A       14=A   
    15=A       16=A       17=A       18=A       19=A       20=A       21=A   
    22=A       23=A       24=A       25=A       26=A       27=A       28=A   
    29=A       30=A       31=A       32=A       33=A       34=A       35=A   
    36=A       37=A       38=A       39=A       40=A       41=A       42=A   
    43=A       44=A       45=A       46=A       47=A       48=A       49=A   
    50=A       51=A       52=A       53=A       54=A       55=A       56=A   
    57=A       58=A       59=A       60=A       61=A       62=A       63=A   
    64=A       65=A       66=A       67=A       68=A       69=A       70=A   
    71=A       72=A       73=A       74=A       75=A       76=A       77=A   
    78=A       79=A       80=A       81=A       82=A       83=A       84=A   
    85=A       86=A       87=A       88=A       89=A       90=A   
 ...... END OF INITIAL ORBITAL SELECTION ......
 CPU     0: STEP CPU TIME=     0.00 TOTAL CPU TIME=          0.0 (      0.0 MIN)
 TOTAL WALL CLOCK TIME=          0.0 SECONDS, CPU UTILIZATION IS    53.88%

          --------------------------
               R-PM3 SCF CALCULATION
          --------------------------

     NUCLEAR ENERGY =      1800.5006252291
     MAXIT =  200     NPUNCH=    2
     EXTRAP=T  DAMP=F  SHIFT=F  RSTRCT=F  DIIS=F  DEM=F  SOSCF=T
     DENSITY MATRIX CONV=  2.00E-05
     SOSCF WILL OPTIMIZE    6400 ORBITAL ROTATIONS, SOGTOL=   0.250
     MEMORY REQUIRED FOR RHF ITERS=    285680 WORDS.

                                                                                   NONZERO     BLOCKS
 ITER EX DEM     TOTAL ENERGY        E CHANGE  DENSITY CHANGE     ORB. GRAD      INTEGRALS    SKIPPED
   1  0  0     -170.9693057083  -170.9693057083   0.169941740   0.000000000              0          0
          ---------------START SECOND ORDER SCF---------------
   2  1  0     -172.1861283581    -1.2168226498   0.051053313   0.022633640              0          0
   3  2  0     -172.2774400782    -0.0913117201   0.055698575   0.023734230              0          0
   4  3  0     -172.2752498801     0.0021901981   0.035404256   0.030620424              0          0
   5  4  0     -172.3029304796    -0.0276805995   0.023363463   0.006600348              0          0
   6  5  0     -172.3068144109    -0.0038839313   0.119567932   0.006579437              0          0
   7  6  0     -172.3070880971    -0.0002736862   0.078343434   0.011294995              0          0
   8  7  0     -172.3143782059    -0.0072901088   0.020839713   0.004125071              0          0
   9  8  0     -172.3159705085    -0.0015923026   0.022957026   0.002973184              0          0
  10  9  0     -172.3169261653    -0.0009556568   0.012830861   0.002121799              0          0
  11 10  0     -172.3173499092    -0.0004237439   0.029782268   0.001881480              0          0
  12 11  0     -172.3179019514    -0.0005520421   0.018286172   0.001731117              0          0
  13 12  0     -172.3181486657    -0.0002467143   0.031190249   0.001498086              0          0
  14 13  0     -172.3185266926    -0.0003780269   0.013498455   0.000855361              0          0
  15 14  0     -172.3187647598    -0.0002380672   0.014577358   0.000943277              0          0
  16 15  0     -172.3189837904    -0.0002190306   0.016045919   0.001228554              0          0
  17 16  0     -172.3191594857    -0.0001756953   0.018557912   0.001036688              0          0
  18 17  0     -172.3193212757    -0.0001617900   0.011871618   0.000724648              0          0
  19 18  0     -172.3194131496    -0.0000918739   0.005131148   0.000301095              0          0
  20 19  0     -172.3194510539    -0.0000379042   0.002178267   0.000268551              0          0
  21 20  0     -172.3194640507    -0.0000129968   0.002153221   0.000194227              0          0
  22 21  0     -172.3194712058    -0.0000071551   0.001604453   0.000114832              0          0
  23 22  0     -172.3194760749    -0.0000048691   0.001995886   0.000101731              0          0
  24 23  0     -172.3194801757    -0.0000041007   0.002173579   0.000092215              0          0
  25 24  0     -172.3194837596    -0.0000035839   0.001879125   0.000085116              0          0
  26 25  0     -172.3194861819    -0.0000024223   0.000998391   0.000050928              0          0
  27 26  0     -172.3194872607    -0.0000010788   0.000510279   0.000037036              0          0
  28 27  0     -172.3194877770    -0.0000005163   0.000397202   0.000034798              0          0
  29 28  0     -172.3194881274    -0.0000003504   0.000467473   0.000025054              0          0
  30 29  0     -172.3194883933    -0.0000002659   0.000391394   0.000019074              0          0
  31 30  0     -172.3194885611    -0.0000001678   0.000237912   0.000015627              0          0
  32 31  0     -172.3194886428    -0.0000000817   0.000091980   0.000013268              0          0
  33 32  0     -172.3194886799    -0.0000000371   0.000082753   0.000009450              0          0
  34 33  0     -172.3194887008    -0.0000000208   0.000070116   0.000004725              0          0
  35 34  0     -172.3194887139    -0.0000000131   0.000052278   0.000003739              0          0
  36 35  0     -172.3194887209    -0.0000000070   0.000034592   0.000002833              0          0
  37 36  0     -172.3194887240    -0.0000000031   0.000020449   0.000001578              0          0

          ----------------
          ENERGY CONVERGED
          ----------------
     TIME TO FORM FOCK OPERATORS=       0.0 SECONDS (       0.0 SEC/ITER)
     FOCK TIME ON FIRST ITERATION=       0.0, LAST ITERATION=       0.0
     TIME TO SOLVE SCF EQUATIONS=       0.1 SECONDS (       0.0 SEC/ITER)

 FINAL R-PM3 ENERGY IS     -172.3194887240 AFTER  37 ITERATIONS

 HEAT OF FORMATION IS      1303.23603 KCAL/MOL
 

          ------------
          EIGENVECTORS
          ------------

                      1          2          3          4          5
                   -1.9763    -1.9021    -1.6017    -1.5960    -1.5739
                     A          A          A          A          A   
    1  C  1  S    0.141653   0.225260   0.038165  -0.093160  -0.173385
    2  C  1  X    0.036363   0.052710   0.016291  -0.041262  -0.015389
    3  C  1  Y   -0.009791  -0.016552   0.041901   0.009674   0.018223
    4  C  1  Z   -0.031554  -0.053197  -0.008865  -0.016634   0.056121
    5  C  2  S    0.135511   0.185956   0.072278  -0.178622  -0.033081
    6  C  2  X    0.004294  -0.009535   0.011098  -0.029637   0.058746
    7  C  2  Y   -0.012702  -0.019044   0.043492   0.026294   0.010368
    8  C  2  Z   -0.039187  -0.058308  -0.027507   0.024716   0.027603
    9  C  3  S    0.121256   0.044082  -0.065843  -0.243717   0.207386
   10  C  3  X    0.002198  -0.034169  -0.002251  -0.006548   0.020619
   11  C  3  Y    0.007660   0.002809   0.053029  -0.026595   0.011899
   12  C  3  Z   -0.024042  -0.008926   0.027191   0.027729  -0.039858
   13  C  4  S    0.130791   0.148226  -0.057033  -0.214477   0.067015
   14  C  4  X   -0.005838  -0.032310  -0.004072  -0.014767   0.070132
   15  C  4  Y    0.009848   0.012721   0.048880  -0.024415  -0.000693
   16  C  4  Z   -0.030610  -0.039504   0.024719   0.024207   0.000309
   17  C  5  S    0.142436   0.227061  -0.080487  -0.055533  -0.176838
   18  C  5  X    0.037052   0.054045  -0.034414  -0.025502  -0.017069
   19  C  5  Y    0.026288   0.044324   0.024582  -0.013135  -0.047504
   20  C  5  Z   -0.019672  -0.033234   0.018089  -0.034628   0.034869
   21  C  6  S    0.138003   0.189912  -0.151397  -0.114014  -0.034319
   22  C  6  X    0.004358  -0.009722  -0.024427  -0.020042   0.060791
   23  C  6  Y    0.032969   0.049266  -0.000214  -0.040305  -0.025066
   24  C  6  Z   -0.024675  -0.036824   0.043779  -0.023127   0.016800
   25  C  7  S    0.168083  -0.110905  -0.204573  -0.164371   0.076867
   26  C  7  X    0.014950  -0.031856   0.004486   0.005437  -0.072519
   27  C  7  Y    0.035142  -0.026784  -0.002236  -0.050309   0.000057
   28  C  7  Z   -0.026021   0.019564   0.051148  -0.024961  -0.002803
   29  C  8  S    0.128472  -0.008758  -0.202790  -0.162344   0.213181
   30  C  8  X    0.007500  -0.033830  -0.004116  -0.003432  -0.017135
   31  C  8  Y    0.022102  -0.001961  -0.001409  -0.047885   0.033803
   32  C  8  Z   -0.016280   0.001014   0.048360  -0.025103  -0.027438
   33  C  9  S    0.139900   0.223600  -0.084186   0.060776  -0.174356
   34  C  9  X    0.037602   0.055349  -0.036468   0.024696  -0.018762
   35  C  9  Y    0.026363   0.044520   0.021847   0.017217  -0.047426
   36  C  9  Z    0.020526   0.034499  -0.015018  -0.030442  -0.036782
   37  C 10  S    0.136772   0.189169  -0.160886   0.104388  -0.032179
   38  C 10  X    0.004853  -0.008593  -0.026160   0.015875   0.060908
   39  C 10  Y    0.033404   0.050057  -0.005802   0.041084  -0.024087
   40  C 10  Z    0.024322   0.036196  -0.040420  -0.024275  -0.017446
   41  C 11  S    0.167008  -0.109674  -0.213068   0.137754   0.084212
   42  C 11  X    0.014917  -0.032026   0.005043  -0.001924  -0.073611
   43  C 11  Y    0.034198  -0.025916  -0.004715   0.048869   0.002751
   44  C 11  Z    0.025723  -0.019519  -0.048797  -0.031338   0.000772
   45  C 12  S    0.128169  -0.007380  -0.211544   0.135958   0.222325
   46  C 12  X    0.006836  -0.033721  -0.002725   0.002155  -0.017609
   47  C 12  Y    0.021661  -0.001625  -0.003342   0.046543   0.036273
   48  C 12  Z    0.016402  -0.001387  -0.046454  -0.030458   0.025690
   49  C 13  S    0.119361   0.044914  -0.246983  -0.014560   0.212115
   50  C 13  X    0.001979  -0.033479  -0.005560  -0.001112   0.021416
   51  C 13  Y    0.026671   0.009927  -0.039472  -0.002448   0.045697
   52  C 13  Z    0.000116  -0.000208   0.001869  -0.057095  -0.001395
   53  C 14  S    0.128632   0.146070  -0.222519  -0.008997   0.072373
   54  C 14  X   -0.005460  -0.031180  -0.013115  -0.002256   0.069420
   55  C 14  Y    0.033643   0.043137  -0.036605  -0.001327   0.001646
   56  C 14  Z    0.000084  -0.000073   0.001949  -0.051833  -0.000840
   57  C 15  S    0.182313  -0.148854  -0.227216  -0.011265  -0.030504
   58  C 15  X   -0.004085  -0.009345   0.034670   0.004035  -0.063474
   59  C 15  Y    0.056735  -0.050197  -0.041616  -0.001613  -0.030059
   60  C 15  Z    0.000205  -0.000157   0.001713  -0.063615  -0.001029
   61  C 16  S    0.139941   0.223824   0.026641   0.097825  -0.174450
   62  C 16  X    0.037842   0.055837   0.011951   0.041699  -0.019286
   63  C 16  Y   -0.010570  -0.017878   0.041190  -0.008774   0.019223
   64  C 16  Z    0.030750   0.051766   0.010290  -0.013103  -0.054982
   65  C 17  S    0.138821   0.192431   0.051931   0.182476  -0.033459
   66  C 17  X    0.003844  -0.010414   0.008496   0.028271   0.063258
   67  C 17  Y   -0.012788  -0.019328   0.047580  -0.023667   0.009953
   68  C 17  Z    0.038949   0.058495   0.024478   0.024085  -0.029276
   69  C 18  S    0.167011  -0.109548   0.072708   0.249906   0.087040
   70  C 18  X    0.014668  -0.031918  -0.001802  -0.004999  -0.074514
   71  C 18  Y   -0.012700   0.009557   0.054958  -0.027018  -0.001423
   72  C 18  Z    0.040542  -0.030694   0.029394   0.030819   0.002761
   73  C 19  S    0.128971  -0.007469   0.072005   0.246021   0.226837
   74  C 19  X    0.007018  -0.033934   0.001405   0.004881  -0.017547
   75  C 19  Y   -0.008193   0.000492   0.053848  -0.026152  -0.014005
   76  C 19  Z    0.025649  -0.001967   0.028064   0.027158   0.041924
   77  C 20  S    0.120728   0.046296  -0.085243   0.229110   0.220579
   78  C 20  X    0.001922  -0.033905  -0.001395   0.005688   0.022701
   79  C 20  Y    0.008024   0.002958   0.049023   0.030894   0.014708
   80  C 20  Z    0.024661   0.009391  -0.029125   0.025640   0.042775
   81  C 21  S    0.130760   0.149722  -0.079087   0.205651   0.074349
   82  C 21  X   -0.006000  -0.032278  -0.003904   0.011746   0.072287
   83  C 21  Y    0.009901   0.012733   0.045084   0.027535   0.000771
   84  C 21  Z    0.031339   0.040500  -0.027555   0.023675   0.000791
   85  C 22  S    0.182542  -0.148991  -0.076407   0.214173  -0.026998
   86  C 22  X   -0.002408  -0.011015   0.010911  -0.029449  -0.066012
   87  C 22  Y    0.016931  -0.014985   0.053494   0.034063  -0.008480
   88  C 22  Z    0.052977  -0.046868  -0.031617   0.028970  -0.027682
   89  C 23  S    0.139959   0.223005   0.102585   0.005550  -0.171346
   90  C 23  X    0.036862   0.053838   0.044126   0.000832  -0.016641
   91  C 23  Y   -0.033007  -0.055661   0.011130  -0.000874   0.059274
   92  C 23  Z   -0.000199  -0.000475   0.002671  -0.044173   0.000290
   93  C 24  S    0.134980   0.185901   0.190867   0.002973  -0.030569
   94  C 24  X    0.004744  -0.008642   0.030729  -0.000339   0.059213
   95  C 24  Y   -0.040943  -0.061101  -0.034160  -0.000742   0.029197
   96  C 24  Z   -0.000536  -0.000980   0.001962  -0.053094   0.000013
   97  C 25  S    0.166951  -0.110250   0.255707   0.011304   0.078021
   98  C 25  X    0.015055  -0.031861  -0.005917   0.001910  -0.072773
   99  C 25  Y   -0.043167   0.032796  -0.039717  -0.002274  -0.001808
  100  C 25  Z    0.000412  -0.000374   0.003131  -0.065263  -0.001829
  101  C 26  S    0.127448  -0.008185   0.254041   0.005725   0.215826
  102  C 26  X    0.007088  -0.033487   0.003684   0.001278  -0.017813
  103  C 26  Y   -0.027176   0.002222  -0.036981  -0.000935  -0.043732
  104  C 26  Z    0.000056  -0.000110   0.002699  -0.063013  -0.001984
  105  C 27  S    0.120244   0.045642   0.195324   0.150245   0.217720
  106  C 27  X    0.002041  -0.033758   0.004660   0.004408   0.022170
  107  C 27  Y   -0.021245  -0.008117  -0.003118  -0.045998  -0.037693
  108  C 27  Z    0.015041   0.005607   0.046029  -0.025045   0.024739
  109  C 28  S    0.129704   0.147859   0.175332   0.133236   0.074283
  110  C 28  X   -0.005653  -0.031715   0.010572   0.008206   0.071218
  111  C 28  Y   -0.026659  -0.034399  -0.002455  -0.041606  -0.001387
  112  C 28  Z    0.019140   0.024638   0.042737  -0.023039  -0.000102
  113  C 29  S    0.182241  -0.148987   0.177684   0.145822  -0.029669
  114  C 29  X   -0.003503  -0.009868  -0.026990  -0.020069  -0.064546
  115  C 29  Y   -0.045234   0.040047  -0.002855  -0.051114   0.023282
  116  C 29  Z    0.033153  -0.029372   0.050139  -0.024975  -0.018659
  117  C 30  S    0.167831  -0.110935   0.091576  -0.245237   0.072290
  118  C 30  X    0.015060  -0.031926  -0.002562   0.007787  -0.072568
  119  C 30  Y   -0.013383   0.010253   0.052807   0.033224   0.000315
  120  C 30  Z   -0.041283   0.031337  -0.031827   0.028820  -0.001112
  121  C 31  S    0.128019  -0.008875   0.092852  -0.245609   0.208718
  122  C 31  X    0.007526  -0.033692   0.000941  -0.004418  -0.017229
  123  C 31  Y   -0.008171   0.000848   0.051058   0.030919  -0.011837
  124  C 31  Z   -0.025982   0.002073  -0.030420   0.027604  -0.040919
  125  C 32  S    0.185740  -0.151655  -0.063056  -0.222202  -0.036393
  126  C 32  X   -0.002725  -0.010706   0.009093   0.034427  -0.063816
  127  C 32  Y    0.017120  -0.015228   0.057707  -0.028106  -0.010585
  128  C 32  Z   -0.053724   0.047488   0.030246   0.030696   0.028815
  129  C 33  S    0.118462   0.043877   0.206704  -0.143335   0.206191
  130  C 33  X    0.002127  -0.033137   0.004329  -0.003273   0.020598
  131  C 33  Y   -0.021405  -0.007784  -0.008581   0.046784  -0.035249
  132  C 33  Z   -0.015418  -0.005752  -0.044022  -0.025268  -0.027100
  133  C 34  S    0.126632   0.143090   0.186129  -0.126696   0.070031
  134  C 34  X   -0.004989  -0.030274   0.011278  -0.009014   0.067526
  135  C 34  Y   -0.026805  -0.034227  -0.008418   0.042128  -0.000655
  136  C 34  Z   -0.019496  -0.024996  -0.040578  -0.022471  -0.001728
  137  C 35  S    0.182713  -0.149417   0.188730  -0.124309  -0.035999
  138  C 35  X   -0.003779  -0.009536  -0.028707   0.021237  -0.062637
  139  C 35  Y   -0.045911   0.040662  -0.007087   0.049456   0.025782
  140  C 35  Z   -0.033240   0.029410  -0.048390  -0.031120   0.017138
  141  C 36  S    0.192874  -0.182428  -0.032670  -0.112942  -0.181156
  142  C 36  X   -0.051200   0.044441   0.014114   0.051834   0.018952
  143  C 36  Y    0.013295  -0.013329   0.052299  -0.008495  -0.018661
  144  C 36  Z   -0.041653   0.041631   0.012073  -0.021240   0.055629
  145  C 37  S    0.189689  -0.179596   0.102254  -0.058665  -0.178966
  146  C 37  X   -0.051624   0.045038  -0.044781   0.028592   0.020461
  147  C 37  Y   -0.036425   0.036403   0.025652   0.018393   0.049259
  148  C 37  Z   -0.024990   0.024989  -0.016410  -0.043435   0.032927
  149  C 38  S    0.187156  -0.177321   0.093048   0.085143  -0.174511
  150  C 38  X   -0.051317   0.044856  -0.041263  -0.035244   0.019561
  151  C 38  Y   -0.035009   0.034989   0.027913  -0.019513   0.046679
  152  C 38  Z    0.026724  -0.026688   0.020239  -0.035884  -0.036560
  153  C 39  S    0.186863  -0.177104  -0.042444   0.119444  -0.173649
  154  C 39  X   -0.051099   0.044678   0.018427  -0.050144   0.019116
  155  C 39  Y    0.013773  -0.013769   0.047682   0.015285  -0.018391
  156  C 39  Z    0.042095  -0.042027  -0.011740  -0.014910  -0.056515
  157  C 40  S    0.188492  -0.178432  -0.122180   0.002047  -0.175473
  158  C 40  X   -0.051733   0.045154   0.053818   0.001965   0.019704
  159  C 40  Y    0.044271  -0.044261   0.012892   0.003460  -0.059678
  160  C 40  Z   -0.000010   0.000051   0.001446  -0.052971  -0.000617

                      6          7          8          9         10
                   -1.4866    -1.4799    -1.3029    -1.2702    -1.2661
                     A          A          A          A          A   
    1  C  1  S    0.080133  -0.164927  -0.171773  -0.108210   0.187941
    2  C  1  X    0.031461  -0.066228   0.028418  -0.032346   0.057653
    3  C  1  Y    0.072445   0.026807   0.030226  -0.082016  -0.040365
    4  C  1  Z   -0.014760  -0.029068   0.085985   0.019659   0.028877
    5  C  2  S    0.122233  -0.252228   0.079643  -0.086038   0.155608
    6  C  2  X    0.004553  -0.011903   0.080829   0.038989  -0.063389
    7  C  2  Y    0.060511   0.049400   0.005969  -0.036100  -0.043783
    8  C  2  Z   -0.046132   0.039122   0.004784   0.041697  -0.038502
    9  C  3  S   -0.017243  -0.083808   0.068657  -0.027915  -0.262782
   10  C  3  X    0.013138   0.074926  -0.083964  -0.006522  -0.048123
   11  C  3  Y    0.017334  -0.006637   0.002304   0.065863  -0.018640
   12  C  3  Z    0.008285   0.009776  -0.009958   0.025531   0.033584
   13  C  4  S   -0.046106  -0.255407   0.160312   0.003492   0.026467
   14  C  4  X    0.005989   0.038529   0.031535  -0.013118  -0.134996
   15  C  4  Y    0.056718  -0.025034   0.006337  -0.002554   0.009571
   16  C  4  Z    0.027265   0.039349  -0.022467  -0.004211  -0.026010
   17  C  5  S   -0.132498  -0.120573  -0.181828   0.141784   0.155320
   18  C  5  X   -0.052419  -0.049416   0.025226   0.044447   0.048744
   19  C  5  Y    0.044553  -0.021224  -0.073601  -0.052307   0.026422
   20  C  5  Z    0.037489  -0.058258   0.053976  -0.052547   0.063166
   21  C  6  S   -0.203286  -0.192991   0.078262   0.119078   0.133156
   22  C  6  X   -0.009779  -0.010229   0.086251  -0.048657  -0.053772
   23  C  6  Y    0.000973  -0.065746  -0.009294   0.004475   0.057191
   24  C  6  Z    0.070174  -0.025266   0.001722  -0.057169   0.008022
   25  C  7  S    0.164408   0.155535  -0.174420  -0.002747   0.005366
   26  C  7  X    0.037260   0.034802   0.024882   0.094977   0.105116
   27  C  7  Y    0.002494   0.049003  -0.021629   0.013816   0.017187
   28  C  7  Z   -0.050827   0.014626   0.017933  -0.008846  -0.010017
   29  C  8  S    0.022830   0.019295  -0.059600  -0.189100  -0.202279
   30  C  8  X    0.056637   0.054023  -0.089401   0.024135   0.028323
   31  C  8  Y   -0.000957   0.005722  -0.008138   0.008910  -0.050264
   32  C  8  Z   -0.006480   0.003608   0.002820   0.057850  -0.019056
   33  C  9  S   -0.154940   0.088738  -0.181976   0.187807  -0.086319
   34  C  9  X   -0.062450   0.033824   0.021994   0.061167  -0.026409
   35  C  9  Y    0.035533   0.035469  -0.074176  -0.035873  -0.046249
   36  C  9  Z   -0.023494  -0.059078  -0.055980   0.026137   0.072371
   37  C 10  S   -0.241971   0.126512   0.082404   0.164206  -0.070804
   38  C 10  X   -0.012637   0.005808   0.089531  -0.061906   0.026285
   39  C 10  Y   -0.017223   0.063444  -0.007562   0.027508  -0.048402
   40  C 10  Z   -0.060155  -0.043145  -0.003711   0.047937   0.031287
   41  C 11  S    0.199121  -0.103916  -0.174732   0.001349  -0.001800
   42  C 11  X    0.044869  -0.023893   0.022473   0.127192  -0.054451
   43  C 11  Y    0.014740  -0.044549  -0.023423   0.017929  -0.006561
   44  C 11  Z    0.044588   0.027757  -0.016870   0.012628  -0.006568
   45  C 12  S    0.028580  -0.014942  -0.051392  -0.246328   0.105219
   46  C 12  X    0.067224  -0.035259  -0.092111   0.032451  -0.013978
   47  C 12  Y    0.001413  -0.004921  -0.006728  -0.009665   0.051555
   48  C 12  Z    0.005485   0.003228  -0.004739  -0.045496  -0.043712
   49  C 13  S   -0.081273  -0.015233   0.082822  -0.256990  -0.060252
   50  C 13  X    0.073406   0.010920  -0.085252  -0.049389  -0.010610
   51  C 13  Y   -0.011827  -0.002302   0.012109  -0.041577  -0.009326
   52  C 13  Z    0.002203  -0.019976  -0.002586   0.011185  -0.062874
   53  C 14  S   -0.250575  -0.038317   0.174468   0.022871   0.002963
   54  C 14  X    0.038648   0.004551   0.032304  -0.129164  -0.029372
   55  C 14  Y   -0.049561  -0.007695   0.027754   0.027107   0.006424
   56  C 14  Z    0.006872  -0.059749  -0.002066  -0.002130   0.004692
   57  C 15  S    0.257787   0.034118  -0.086287   0.161852   0.035437
   58  C 15  X   -0.008432  -0.002665   0.088961   0.075888   0.015231
   59  C 15  Y    0.054787   0.007371   0.005861   0.053928   0.012546
   60  C 15  Z   -0.010019   0.074588   0.000182  -0.012321   0.054577
   61  C 16  S    0.035181   0.177614  -0.182040  -0.029221  -0.206541
   62  C 16  X    0.014656   0.071515   0.020712  -0.009242  -0.067967
   63  C 16  Y    0.074416  -0.008092   0.031082  -0.090766   0.004823
   64  C 16  Z    0.020736  -0.021853  -0.084190  -0.028638   0.021181
   65  C 17  S    0.055369   0.275793   0.077151  -0.023714  -0.182007
   66  C 17  X    0.002581   0.012305   0.090077   0.010213   0.071426
   67  C 17  Y    0.073554  -0.030179   0.004658  -0.054939   0.023152
   68  C 17  Z    0.035258   0.045662  -0.009964  -0.025744  -0.049215
   69  C 18  S   -0.040864  -0.217774  -0.183466  -0.004001   0.003100
   70  C 18  X   -0.009335  -0.050494   0.024561  -0.016659  -0.139568
   71  C 18  Y   -0.050242   0.021850   0.007594   0.000543   0.006480
   72  C 18  Z   -0.024515  -0.036115  -0.027847  -0.003459  -0.022321
   73  C 19  S   -0.004306  -0.026488  -0.061501   0.032068   0.274701
   74  C 19  X   -0.014821  -0.076093  -0.093635  -0.006312  -0.035351
   75  C 19  Y   -0.007257   0.002695   0.000889   0.064948  -0.018769
   76  C 19  Z   -0.003130  -0.002884  -0.008405   0.025686   0.032385
   77  C 20  S   -0.033608   0.076961   0.083968  -0.125265   0.225468
   78  C 20  X    0.031670  -0.066394  -0.086852  -0.025949   0.044777
   79  C 20  Y    0.016371   0.012785   0.001608   0.048997   0.044398
   80  C 20  Z   -0.009921   0.006885   0.012157  -0.035978   0.021371
   81  C 21  S   -0.108045   0.229479   0.173834   0.016846  -0.024919
   82  C 21  X    0.017206  -0.035012   0.035444  -0.064690   0.114818
   83  C 21  Y    0.048134   0.039832   0.006251  -0.001675  -0.009477
   84  C 21  Z   -0.036922   0.030719   0.024847   0.015220  -0.021187
   85  C 22  S    0.112348  -0.231160  -0.088988   0.081331  -0.141686
   86  C 22  X   -0.002383   0.004267   0.090528   0.039796  -0.068791
   87  C 22  Y   -0.058839  -0.045834   0.000167  -0.038744  -0.039138
   88  C 22  Z    0.043395  -0.034875   0.005613   0.039931  -0.034822
   89  C 23  S    0.180157   0.025082  -0.169627  -0.209952  -0.039306
   90  C 23  X    0.071601   0.008287   0.026597  -0.065033  -0.011313
   91  C 23  Y    0.017440   0.001823   0.091947  -0.012731  -0.004384
   92  C 23  Z    0.010478  -0.080171   0.001976  -0.018394   0.094465
   93  C 24  S    0.273023   0.032546   0.086002  -0.172427  -0.033707
   94  C 24  X    0.012992   0.001413   0.083230   0.070368   0.011336
   95  C 24  Y   -0.056639  -0.006466   0.006312   0.055459   0.009176
   96  C 24  Z    0.008395  -0.080946   0.000781  -0.007830   0.056735
   97  C 25  S   -0.224330  -0.026414  -0.173403  -0.008441  -0.002549
   98  C 25  X   -0.049642  -0.007469   0.026017  -0.135912  -0.026308
   99  C 25  Y    0.043528   0.005310   0.027913   0.025232   0.004215
  100  C 25  Z   -0.008987   0.055943   0.003012   0.000862  -0.000681
  101  C 26  S   -0.033136  -0.001043  -0.060074   0.265346   0.047098
  102  C 26  X   -0.075735  -0.009116  -0.089104  -0.038813  -0.006034
  103  C 26  Y    0.005018  -0.000005   0.009256  -0.038211  -0.007560
  104  C 26  Z   -0.001946   0.006925   0.001071   0.015474  -0.070632
  105  C 27  S    0.061303   0.061386   0.076690   0.178586   0.190848
  106  C 27  X   -0.054526  -0.050686  -0.087392   0.033219   0.038022
  107  C 27  Y    0.000813  -0.016117  -0.009481   0.005847  -0.051647
  108  C 27  Z    0.015260  -0.007368   0.006259   0.055287  -0.021627
  109  C 28  S    0.187500   0.176330   0.171970  -0.017919  -0.020702
  110  C 28  X   -0.029012  -0.025934   0.031960   0.092314   0.097198
  111  C 28  Y   -0.004284  -0.053022  -0.020882   0.013365   0.017922
  112  C 28  Z    0.054098  -0.018526   0.015362  -0.014057  -0.008967
  113  C 29  S   -0.185982  -0.177149  -0.088588  -0.116596  -0.122714
  114  C 29  X    0.006305   0.003985   0.091727  -0.049106  -0.057385
  115  C 29  Y    0.000225   0.062481  -0.003705   0.005466   0.053404
  116  C 29  Z   -0.065315   0.022988   0.006127  -0.054469   0.006169
  117  C 30  S   -0.103562   0.205486  -0.165425  -0.002300   0.006368
  118  C 30  X   -0.021994   0.045515   0.028345  -0.071220   0.123519
  119  C 30  Y   -0.042108  -0.035066   0.008477   0.005123  -0.008883
  120  C 30  Z    0.034449  -0.030523   0.025128   0.012262  -0.021043
  121  C 31  S   -0.018494   0.028369  -0.060541   0.141344  -0.238080
  122  C 31  X   -0.034257   0.070880  -0.086155  -0.020681   0.033097
  123  C 31  Y   -0.005996  -0.004080   0.003703   0.053027   0.040648
  124  C 31  Z    0.004795  -0.002706   0.008083  -0.037740   0.023037
  125  C 32  S    0.045176   0.256626  -0.079280   0.015883   0.172662
  126  C 32  X   -0.000751  -0.007518   0.090212   0.009726   0.077094
  127  C 32  Y   -0.071917   0.029678   0.006135  -0.051232   0.022938
  128  C 32  Z   -0.032968  -0.044669  -0.006430  -0.022313  -0.049219
  129  C 33  S    0.068581  -0.040239   0.073261   0.245119  -0.116481
  130  C 33  X   -0.065347   0.036740  -0.083462   0.043179  -0.020852
  131  C 33  Y   -0.002239   0.015349  -0.007758  -0.017059   0.049170
  132  C 33  Z   -0.013446  -0.011109  -0.006934  -0.043084  -0.036204
  133  C 34  S    0.219274  -0.123526   0.167994  -0.012802   0.006439
  134  C 34  X   -0.034272   0.018330   0.028236   0.120926  -0.057354
  135  C 34  Y   -0.018914   0.051281  -0.020929   0.018318  -0.012491
  136  C 34  Z   -0.048296  -0.028393  -0.017764   0.016333  -0.003139
  137  C 35  S   -0.230604   0.124790  -0.074730  -0.153830   0.070590
  138  C 35  X    0.008104  -0.005578   0.089731  -0.068304   0.031448
  139  C 35  Y    0.018511  -0.060411  -0.008299   0.026854  -0.049808
  140  C 35  Z    0.056794   0.038893  -0.002553   0.048184   0.028031
  141  C 36  S    0.029072   0.164651   0.189036   0.023012   0.204717
  142  C 36  X   -0.011218  -0.068884   0.024521  -0.005395  -0.068283
  143  C 36  Y   -0.075692   0.007165   0.031131  -0.092714   0.004054
  144  C 36  Z   -0.020532   0.025709  -0.086889  -0.028844   0.024056
  145  C 37  S   -0.152809   0.074895   0.189445  -0.187437   0.079429
  146  C 37  X    0.062500  -0.033384   0.020830   0.062219  -0.029241
  147  C 37  Y   -0.032402  -0.030463  -0.077308  -0.033457  -0.043849
  148  C 37  Z    0.017930   0.061728  -0.050804   0.020288   0.077251
  149  C 38  S   -0.119008  -0.123781   0.180459  -0.132620  -0.158428
  150  C 38  X    0.049446   0.048609   0.023005   0.045832   0.049585
  151  C 38  Y   -0.041757   0.024383  -0.072740  -0.051777   0.029648
  152  C 38  Z   -0.035014   0.048183   0.058125  -0.048982   0.053815
  153  C 39  S    0.077096  -0.156880   0.178932   0.107847  -0.181083
  154  C 39  X   -0.030870   0.061883   0.023368  -0.033229   0.056730
  155  C 39  Y   -0.065610  -0.026797   0.028413  -0.078278  -0.040703
  156  C 39  Z    0.015292   0.021917   0.088049   0.021281   0.023993
  157  C 40  S    0.172056   0.014783   0.180127   0.207172   0.035694
  158  C 40  X   -0.070060  -0.008954   0.023317  -0.065873  -0.015148
  159  C 40  Y   -0.016052  -0.004823   0.093661  -0.011716  -0.005789
  160  C 40  Z   -0.009979   0.074352   0.000880  -0.019324   0.092000

                     11         12         13         14         15
                   -1.2018    -1.1994    -1.1092    -1.1052    -1.1028
                     A          A          A          A          A   
    1  C  1  S   -0.040731   0.022147  -0.116455  -0.105580  -0.007559
    2  C  1  X   -0.020105   0.013518   0.077880  -0.025991   0.034208
    3  C  1  Y   -0.031291  -0.035099   0.064390  -0.024178  -0.073752
    4  C  1  Z   -0.007352   0.023287   0.101506  -0.008082   0.067252
    5  C  2  S   -0.124394   0.078350   0.160000  -0.183944   0.097040
    6  C  2  X   -0.030921   0.022820   0.041389  -0.021849   0.018326
    7  C  2  Y   -0.048820  -0.079061   0.041213  -0.031904  -0.148461
    8  C  2  Z    0.018440   0.023094  -0.029711   0.018431   0.037353
    9  C  3  S    0.071214   0.264115  -0.137893  -0.030488   0.071802
   10  C  3  X   -0.000253   0.001584  -0.032593  -0.005334  -0.107378
   11  C  3  Y   -0.119608   0.035011   0.000951  -0.030219  -0.002495
   12  C  3  Z   -0.040554   0.004551   0.029190  -0.003803   0.006517
   13  C  4  S    0.058605   0.210482   0.042570   0.005164   0.294630
   14  C  4  X    0.008253   0.031817  -0.057851  -0.011875  -0.040920
   15  C  4  Y   -0.093798   0.025261   0.033163  -0.109755   0.002097
   16  C  4  Z   -0.031100   0.009433  -0.017267  -0.042338  -0.014354
   17  C  5  S    0.042963  -0.001714  -0.159823   0.045506  -0.014645
   18  C  5  X    0.024992   0.000374   0.058441   0.054512   0.032786
   19  C  5  Y   -0.019625   0.027341  -0.090987  -0.067677   0.019130
   20  C  5  Z    0.011236   0.038845   0.045320   0.011101   0.099484
   21  C  6  S    0.150861   0.003665   0.068833   0.232640   0.103303
   22  C  6  X    0.039976   0.003134   0.032774   0.038261   0.022476
   23  C  6  Y   -0.001208   0.058194  -0.009196  -0.026118   0.096196
   24  C  6  Z   -0.005308   0.079098  -0.030221  -0.054705   0.118275
   25  C  7  S    0.241301   0.011213   0.168087  -0.212571  -0.059740
   26  C  7  X   -0.021757  -0.004241   0.090075  -0.022344   0.007796
   27  C  7  Y   -0.002106   0.071059   0.039670   0.024203  -0.059708
   28  C  7  Z   -0.004302   0.096454  -0.004107   0.035001  -0.087786
   29  C  8  S    0.264197   0.016306  -0.115984  -0.079829  -0.051641
   30  C  8  X    0.007642  -0.001730   0.072662  -0.078359  -0.020292
   31  C  8  Y    0.002311   0.082801  -0.020015  -0.001430  -0.009186
   32  C  8  Z   -0.004469   0.110018   0.023024   0.005775  -0.001446
   33  C  9  S   -0.034192  -0.025160  -0.108464  -0.082383  -0.105304
   34  C  9  X   -0.017444  -0.013388   0.081592  -0.010579  -0.014821
   35  C  9  Y   -0.006369   0.032923  -0.098397  -0.049197   0.034235
   36  C  9  Z    0.031693  -0.024043  -0.077907   0.059022  -0.046319
   37  C 10  S   -0.109309  -0.092271   0.208321  -0.086089  -0.142420
   38  C 10  X   -0.031248  -0.025034   0.055387  -0.003946  -0.011294
   39  C 10  Y   -0.037729   0.043796   0.018763  -0.083679   0.049411
   40  C 10  Z    0.049900  -0.060537   0.003808   0.107803  -0.073853
   41  C 11  S   -0.190714  -0.156886   0.016731   0.151331   0.223917
   42  C 11  X    0.020625   0.014558   0.065776   0.042765   0.058997
   43  C 11  Y   -0.044321   0.054128   0.021503   0.066137  -0.025266
   44  C 11  Z    0.060780  -0.073932   0.019690  -0.070873   0.059163
   45  C 12  S   -0.216796  -0.167823  -0.151343  -0.003529   0.004191
   46  C 12  X   -0.005520  -0.006384   0.015773   0.058292   0.084744
   47  C 12  Y   -0.054854   0.061635  -0.021828  -0.001911  -0.009190
   48  C 12  Z    0.066002  -0.085805  -0.019536  -0.010076  -0.001915
   49  C 13  S    0.087891  -0.243245  -0.118995   0.038302  -0.109968
[...]
  132  C 33  Z    0.129241  -0.047662   0.014749  -0.091999   0.187114
  133  C 34  S    0.011050  -0.001468  -0.009690  -0.080899   0.036563
  134  C 34  X   -0.022885   0.009230   0.003758   0.042532  -0.025505
  135  C 34  Y    0.105543  -0.008500  -0.016619  -0.078143  -0.043235
  136  C 34  Z    0.126207   0.052028  -0.038664  -0.051978  -0.023103
  137  C 35  S    0.031553  -0.006009  -0.010460  -0.083531   0.061358
  138  C 35  X    0.055836   0.000840  -0.000719  -0.019746   0.030781
  139  C 35  Y    0.236741  -0.071761  -0.038541  -0.133504   0.158872
  140  C 35  Z    0.173867  -0.017421  -0.009257  -0.088512   0.093715
  141  C 36  S   -0.019984   0.022274   0.026511   0.027075  -0.051865
  142  C 36  X   -0.126705   0.139267   0.136792   0.045648  -0.071051
  143  C 36  Y    0.008750   0.011836  -0.001389  -0.015112   0.055351
  144  C 36  Z   -0.083534   0.088652   0.118944   0.063100  -0.052303
  145  C 37  S    0.014078  -0.028901  -0.015734   0.006208  -0.005808
  146  C 37  X    0.131741  -0.177790  -0.112628   0.000247  -0.013908
  147  C 37  Y    0.057313  -0.120853  -0.071944   0.021792  -0.057314
  148  C 37  Z    0.042708  -0.100245  -0.081199   0.005604  -0.009704
  149  C 38  S   -0.003390  -0.023601  -0.038418   0.007438   0.012966
  150  C 38  X   -0.056462  -0.141839  -0.207685   0.005109   0.013885
  151  C 38  Y   -0.001202  -0.082483  -0.146379   0.025834   0.005563
  152  C 38  Z    0.003670   0.088884   0.113441  -0.005448  -0.004194
  153  C 39  S    0.017098   0.037306   0.020683   0.027606  -0.016138
  154  C 39  X    0.084307   0.175260   0.138266   0.052000  -0.019623
  155  C 39  Y   -0.023058  -0.007252   0.021581  -0.015737   0.017712
  156  C 39  Z   -0.049169  -0.144130  -0.092001  -0.069241  -0.036744
  157  C 40  S   -0.013242   0.021357   0.029587   0.012860   0.068426
  158  C 40  X   -0.046477   0.083945   0.106217   0.035395   0.120636
  159  C 40  Y    0.051075  -0.138631  -0.155603  -0.065921  -0.108152
  160  C 40  Z    0.017170   0.005059  -0.004314  -0.000022   0.015598

                     86         87         88         89         90
                   -0.0677    -0.0659    -0.0574    -0.0469    -0.0442
                     A          A          A          A          A   
    1  C  1  S   -0.037683   0.051838   0.073004  -0.117186  -0.142755
    2  C  1  X    0.115953  -0.139295  -0.115101   0.148854   0.142866
    3  C  1  Y   -0.043468   0.063813  -0.033680  -0.095222  -0.079056
    4  C  1  Z   -0.080629   0.129843   0.055246  -0.075792  -0.081064
    5  C  2  S    0.008695  -0.061165  -0.006756   0.035901   0.074529
    6  C  2  X   -0.006640   0.042928   0.012247  -0.060763  -0.072514
    7  C  2  Y   -0.050267  -0.065457   0.042877  -0.000778   0.000499
    8  C  2  Z   -0.033053  -0.098024   0.114758   0.002660   0.063663
    9  C  3  S   -0.030154   0.042506  -0.031011  -0.008942   0.032604
   10  C  3  X   -0.053437   0.033870  -0.033795  -0.030441  -0.023442
   11  C  3  Y    0.068222  -0.062163   0.063078   0.036017  -0.029212
   12  C  3  Z   -0.100219   0.261254  -0.151567  -0.105752   0.049949
   13  C  4  S   -0.047459  -0.000466  -0.013347  -0.012249  -0.056914
   14  C  4  X    0.027026   0.001084   0.007415   0.005863   0.015252
   15  C  4  Y    0.076524   0.097340  -0.014498  -0.024214   0.008728
   16  C  4  Z   -0.089212  -0.198985   0.070224   0.070618  -0.096186
   17  C  5  S    0.001718   0.019062  -0.118543  -0.028872   0.002456
   18  C  5  X    0.014380  -0.063779   0.223899   0.038986  -0.000427
   19  C  5  Y    0.067623  -0.078478   0.135199   0.084976   0.057843
   20  C  5  Z   -0.047955  -0.007150  -0.103392   0.042429   0.059284
   21  C  6  S    0.073092  -0.001254   0.062371   0.012510   0.001210
   22  C  6  X   -0.041592   0.004153  -0.051224  -0.021575  -0.005914
   23  C  6  Y   -0.217558  -0.002610   0.000589  -0.021758   0.010108
   24  C  6  Z    0.160771   0.016794  -0.005869   0.006248   0.022420
   25  C  7  S    0.050938  -0.002376   0.043680   0.005114   0.013856
   26  C  7  X    0.027168  -0.007231   0.028473   0.001408   0.011050
   27  C  7  Y    0.057569   0.013186  -0.223542   0.032760  -0.054095
   28  C  7  Z   -0.040932  -0.063997   0.159255   0.059102  -0.056829
   29  C  8  S    0.049886  -0.003884   0.020659   0.000174   0.007917
   30  C  8  X   -0.069507   0.000302  -0.041212  -0.006246  -0.003778
   31  C  8  Y   -0.247823  -0.001918   0.017942  -0.005217  -0.005538
   32  C  8  Z    0.179651  -0.057912  -0.011339   0.023827  -0.029614
   33  C  9  S   -0.041299  -0.065770   0.086129   0.149538   0.128459
   34  C  9  X    0.049971   0.125379  -0.170345  -0.139639  -0.095515
   35  C  9  Y    0.013097   0.107467  -0.116480  -0.029427   0.001016
   36  C  9  Z    0.053149   0.070945  -0.021494  -0.108345  -0.098491
   37  C 10  S    0.044187   0.069298  -0.014291  -0.066746  -0.059460
   38  C 10  X   -0.019422  -0.049288   0.025103   0.075744   0.060957
   39  C 10  Y   -0.067793  -0.089438  -0.084746   0.057335   0.072815
   40  C 10  Z   -0.010865  -0.093273  -0.073305   0.041648   0.020861
   41  C 11  S    0.009562   0.054497   0.006219  -0.010245   0.048127
   42  C 11  X    0.006534   0.028172   0.001230  -0.013410   0.020723
   43  C 11  Y   -0.055120  -0.119853   0.139646  -0.015380  -0.076370
   44  C 11  Z    0.019276  -0.097419   0.135390  -0.074578   0.028942
   45  C 12  S    0.018163   0.026739   0.013243  -0.010080  -0.015225
   46  C 12  X   -0.022350  -0.059405  -0.015447   0.014147  -0.017166
   47  C 12  Y   -0.056448  -0.074821  -0.112457   0.058710   0.002254
   48  C 12  Z    0.024984  -0.059909  -0.054654   0.029227   0.029922
   49  C 13  S   -0.040361  -0.042269  -0.027894   0.014568  -0.049880
   50  C 13  X   -0.066853  -0.038812  -0.032776   0.027836   0.002642
   51  C 13  Y    0.153410   0.215284   0.098419  -0.090043   0.062931
   52  C 13  Z   -0.027351   0.035851  -0.019943  -0.005668  -0.005440
   53  C 14  S   -0.055088   0.000204  -0.014999   0.013559   0.055531
   54  C 14  X    0.037820   0.006550   0.008046  -0.016338  -0.015421
   55  C 14  Y    0.092082  -0.159422  -0.048811   0.063815  -0.102045
   56  C 14  Z   -0.023729   0.029937  -0.004804  -0.023987  -0.017025
   57  C 15  S   -0.069433  -0.024692  -0.032106   0.107583  -0.137842
   58  C 15  X   -0.038965  -0.002744  -0.005388   0.096376  -0.088635
   59  C 15  Y    0.195639   0.150390   0.112310  -0.131273   0.185848
   60  C 15  Z   -0.009495   0.028964  -0.039737  -0.000093   0.004178
   61  C 16  S    0.057801   0.024938  -0.006297  -0.226817  -0.229684
   62  C 16  X   -0.117454  -0.008159  -0.010711   0.216079   0.201959
   63  C 16  Y    0.011513  -0.025478   0.057337  -0.058902  -0.066840
   64  C 16  Z   -0.151731   0.049816  -0.035045   0.106381   0.111215
   65  C 17  S   -0.070607   0.023646  -0.031157   0.109004   0.139015
   66  C 17  X    0.039805  -0.002329   0.004225  -0.096613  -0.089235
   67  C 17  Y   -0.069971   0.018163  -0.072008   0.040832   0.054838
   68  C 17  Z    0.185208  -0.150000   0.093430  -0.126651  -0.179153
   69  C 18  S   -0.055388   0.000023  -0.014009   0.013117  -0.055720
   70  C 18  X   -0.037684   0.006786  -0.007795   0.016185  -0.015444
   71  C 18  Y   -0.051275  -0.077040   0.011265  -0.042373  -0.017573
   72  C 18  Z    0.080255   0.140871  -0.050716   0.056659   0.102509
   73  C 19  S   -0.040140   0.041952  -0.027794   0.014991   0.049990
   74  C 19  X    0.066772  -0.039081   0.032529  -0.028494   0.002739
   75  C 19  Y   -0.072504   0.032531  -0.050627   0.023951   0.024225
   76  C 19  Z    0.133888  -0.216642   0.089483  -0.091083  -0.058100
   77  C 20  S    0.017934  -0.026920   0.012309  -0.010058   0.014430
   78  C 20  X    0.022594  -0.058812   0.014771  -0.013534  -0.016807
   79  C 20  Y    0.039464   0.034524  -0.015761   0.008148  -0.027087
   80  C 20  Z   -0.049342   0.091710  -0.120139   0.061349  -0.009023
   81  C 21  S    0.009950  -0.053330   0.006787  -0.010307  -0.046651
   82  C 21  X   -0.006795   0.027606  -0.001115   0.013364   0.020121
   83  C 21  Y    0.035624   0.055905   0.084843  -0.066137  -0.053809
   84  C 21  Z   -0.046917   0.145064   0.173645  -0.034202   0.059787
   85  C 22  S    0.044094  -0.069787  -0.014440  -0.064495   0.056832
   86  C 22  X    0.019421  -0.049668  -0.024550  -0.073734   0.059112
   87  C 22  Y    0.009897   0.060655  -0.043316   0.021984   0.004356
   88  C 22  Z   -0.069167   0.113479  -0.101631   0.066167  -0.072685
   89  C 23  S    0.039302  -0.042013  -0.024682   0.215878   0.221062
   90  C 23  X   -0.110162   0.107905   0.053869  -0.220550  -0.192631
   91  C 23  Y    0.121592  -0.049648  -0.003198   0.148133   0.121912
   92  C 23  Z    0.048692  -0.021827  -0.024825  -0.043619  -0.038108
   93  C 24  S   -0.068375  -0.033699  -0.030544  -0.113061  -0.103745
   94  C 24  X    0.026420  -0.006941   0.009491   0.106145   0.106161
   95  C 24  Y   -0.102602  -0.158617  -0.151794  -0.102231  -0.093294
   96  C 24  Z   -0.007670  -0.020302   0.039706  -0.010605  -0.015753
   97  C 25  S   -0.047240   0.000143  -0.013349  -0.012455   0.056374
   98  C 25  X   -0.026514   0.000989  -0.007112  -0.005961   0.014846
   99  C 25  Y   -0.107723   0.218088   0.069342   0.074189   0.090790
  100  C 25  Z    0.045291  -0.031145   0.007683  -0.002197   0.023193
  101  C 26  S   -0.029476  -0.041443  -0.030631  -0.008646  -0.031962
  102  C 26  X    0.053160   0.033541   0.033669   0.030318  -0.023445
  103  C 26  Y   -0.118866  -0.266270  -0.162015  -0.111499  -0.054626
  104  C 26  Z    0.034150  -0.021839   0.012195   0.000922   0.013163
  105  C 27  S    0.050371   0.003647   0.020178   0.000099  -0.006694
  106  C 27  X    0.069452   0.000401   0.040869   0.005279  -0.004223
  107  C 27  Y    0.246662   0.056429  -0.017244   0.022158   0.030124
  108  C 27  Z   -0.179858   0.017889   0.013966   0.004087   0.011648
  109  C 28  S    0.050421   0.002807   0.043661   0.003788  -0.015553
  110  C 28  X   -0.027366  -0.007761  -0.028642  -0.000531   0.011558
  111  C 28  Y   -0.058433   0.066228   0.221401   0.047140   0.032626
  112  C 28  Z    0.042221   0.006132  -0.162741   0.048909   0.072913
  113  C 29  S    0.073417   0.001172   0.061752   0.010243   0.001034
  114  C 29  X    0.041697   0.003982   0.050943   0.018458  -0.003621
  115  C 29  Y    0.219905  -0.019346  -0.006083   0.011493  -0.015517
  116  C 29  Z   -0.157314  -0.000769  -0.000737  -0.018103  -0.018262
  117  C 30  S    0.045091  -0.062353  -0.008361   0.034824  -0.027734
  118  C 30  X    0.027226  -0.034554  -0.003277   0.024193  -0.007237
  119  C 30  Y    0.031098  -0.053762  -0.092814  -0.035697   0.032962
  120  C 30  Z    0.185122  -0.180912  -0.171121   0.032141  -0.074921
  121  C 31  S   -0.000161  -0.025578   0.022978  -0.001112   0.031094
  122  C 31  X   -0.024175   0.054742  -0.013404  -0.020507  -0.002350
  123  C 31  Y   -0.052808  -0.011948   0.017096   0.001636   0.041244
  124  C 31  Z   -0.031850  -0.032147   0.164118   0.039088   0.056279
  125  C 32  S   -0.069705   0.033577  -0.029736  -0.114997   0.104485
  126  C 32  X   -0.027133  -0.006897  -0.008236  -0.107303   0.106764
  127  C 32  Y    0.024838  -0.028856   0.084760   0.021569  -0.015287
  128  C 32  Z   -0.101318   0.155037  -0.131618  -0.100815   0.094302
  129  C 33  S   -0.000904   0.025219   0.023803  -0.000556  -0.032476
  130  C 33  X    0.023019   0.054395   0.014040   0.021378  -0.002091
  131  C 33  Y   -0.016923   0.024511   0.152757   0.039075  -0.044474
  132  C 33  Z   -0.062516   0.020200   0.068910   0.016098  -0.058524
  133  C 34  S    0.044386   0.062751  -0.008687   0.034863   0.029660
  134  C 34  X   -0.026963  -0.034898   0.003365  -0.024333  -0.007954
  135  C 34  Y    0.166228   0.155683  -0.134736   0.039363   0.086108
  136  C 34  Z    0.087116   0.107216  -0.142282  -0.023870  -0.003096
  137  C 35  S    0.008063   0.060929  -0.007152   0.038390  -0.076818
  138  C 35  X    0.006365   0.042920  -0.012824   0.063493  -0.074183
  139  C 35  Y   -0.018127   0.075109   0.096378   0.003981  -0.062354
  140  C 35  Z   -0.059807   0.093883   0.076424   0.000692  -0.022537
  141  C 36  S    0.041184   0.041052  -0.026820   0.219074  -0.222154
  142  C 36  X    0.112193   0.106026  -0.056943   0.224343  -0.193203
  143  C 36  Y    0.007268   0.005568  -0.021722  -0.086197   0.072941
  144  C 36  Z    0.131988   0.052919  -0.012752   0.130543  -0.105081
  145  C 37  S   -0.038180  -0.050640   0.074277  -0.122808   0.146167
  146  C 37  X   -0.116486  -0.136853   0.117339  -0.155172   0.145027
  147  C 37  Y   -0.062673  -0.102579   0.063838  -0.046721   0.054660
  148  C 37  Z   -0.066991  -0.100608  -0.013410  -0.115280   0.100297
  149  C 38  S    0.001111  -0.020192  -0.118146  -0.022820  -0.006923
  150  C 38  X   -0.015032  -0.066557  -0.222898  -0.032435  -0.003810
  151  C 38  Y   -0.067010  -0.018853  -0.139657   0.017690  -0.040319
  152  C 38  Z    0.050044   0.077456   0.094871   0.092382  -0.072254
  153  C 39  S   -0.040176   0.066399   0.084700   0.144830  -0.124412
  154  C 39  X   -0.049064   0.127898   0.168481   0.134932  -0.092716
  155  C 39  Y    0.045850  -0.033873   0.016483  -0.094268   0.093842
  156  C 39  Z    0.029024  -0.126193  -0.116890  -0.058175   0.027413
  157  C 40  S    0.055664  -0.024248  -0.004212  -0.225441   0.227732
  158  C 40  X    0.115054  -0.006974   0.012703  -0.215109   0.200763
  159  C 40  Y   -0.145980  -0.056484  -0.052004   0.118188  -0.125461
  160  C 40  Z   -0.036516   0.009281   0.043814  -0.025823   0.030583

     ----------------------------------------------------------------
     PROPERTY VALUES FOR THE RHF   SELF-CONSISTENT FIELD WAVEFUNCTION
     ----------------------------------------------------------------

                    -------------
                    MOPAC CHARGES
                    -------------
         ATOM NO.   TYPE          CHARGE        ATOM  ELECTRON DENSITY
           1         C              0.0169          3.9831
           2         C             -0.0169          4.0169
           3         C             -0.0172          4.0172
           4         C              0.0264          3.9736
           5         C              0.0145          3.9855
           6         C             -0.0030          4.0030
           7         C              0.0051          3.9949
           8         C              0.0089          3.9911
           9         C             -0.0185          4.0185
          10         C              0.0149          3.9851
          11         C             -0.0195          4.0195
          12         C              0.0063          3.9937
          13         C              0.0191          3.9809
          14         C             -0.0254          4.0254
          15         C              0.0310          3.9690
          16         C             -0.0323          4.0323
          17         C              0.0306          3.9694
          18         C             -0.0266          4.0266
          19         C              0.0198          3.9802
          20         C              0.0049          3.9951
          21         C             -0.0181          4.0181
          22         C              0.0160          3.9840
          23         C             -0.0209          4.0209
          24         C              0.0102          3.9898
          25         C              0.0268          3.9732
          26         C             -0.0168          4.0168
          27         C              0.0089          3.9911
          28         C              0.0046          3.9954
          29         C             -0.0022          4.0022
          30         C             -0.0256          4.0256
          31         C              0.0269          3.9731
          32         C              0.0100          3.9900
          33         C              0.0262          3.9738
          34         C             -0.0264          4.0264
          35         C             -0.0177          4.0177
          36         C             -0.0211          4.0211
          37         C              0.0179          3.9821
          38         C              0.0134          3.9866
          39         C             -0.0183          4.0183
          40         C             -0.0325          4.0325

          ---------------------
          ELECTROSTATIC MOMENTS
          ---------------------

 POINT   1           X           Y           Z (ANGS)      CHARGE
                 0.000000    0.000000    0.000000        0.00 (A.U.)
         DX          DY          DZ         /D/  (DEBYE)
     0.001472    0.108025    0.151517    0.186088
 ...... END OF PROPERTY EVALUATION ......
 CPU     0: STEP CPU TIME=     0.05 TOTAL CPU TIME=          1.0 (      0.0 MIN)
 TOTAL WALL CLOCK TIME=          1.4 SECONDS, CPU UTILIZATION IS    73.97%
  $VIB   
          IVIB=   0 IATOM=   0 ICOORD=   0 E=     -172.7381115961
  2.918919404E-04-1.714448969E-04 5.021015860E-05-2.093992553E-04-3.360720373E-04
  4.265401656E-05-4.967585114E-04 2.885995385E-04 4.511409400E-04 4.498918029E-04
  4.472236960E-04-3.736030576E-05-3.501303681E-05 1.841815034E-04-5.277120626E-05
  2.327145053E-04-4.170430169E-04-4.860269544E-04 2.297059808E-04 8.345079534E-05
  7.387419385E-05-4.377922552E-04-2.237705207E-04-6.760428825E-04 2.913256595E-05
 -2.072243942E-05 9.443112057E-05-2.326340480E-04 1.400258210E-04-3.990334095E-04
 -5.011278261E-04-3.015235428E-04-1.242117893E-04 6.757033797E-04 4.490429560E-04
 -1.086263343E-04 1.921956904E-04-2.444733647E-04 6.580204382E-04-1.665845865E-04
  2.938822031E-04 6.774937820E-04 5.022494219E-04 1.446905214E-04-1.024691957E-04
 -3.724687561E-05 1.279278422E-04 6.877096925E-05-1.474771312E-04 9.479904243E-05
 -1.167280798E-04-1.600569276E-04-4.882374137E-04-1.414993435E-04 1.656432384E-04
 -7.953758031E-04-3.191673888E-05 7.436313326E-04 1.927379064E-04-3.355308632E-04
 -3.803639111E-04-1.557948428E-06 4.675131889E-04-2.188643058E-05 3.677614751E-04
 -1.640446771E-04 2.176051970E-04-4.793913387E-05-1.344861546E-04-2.006667845E-04
  7.085127081E-05 1.435909586E-05 3.105230611E-04 1.019096836E-04-4.881854036E-04
 -4.957743948E-04-3.828626315E-04-3.919148396E-04-2.715579455E-04 6.568437703E-04
  3.361645676E-04 3.487647554E-04-2.002399374E-04 1.703419673E-04 1.525688059E-04
  3.543322984E-04 3.466429200E-04 4.639484921E-04 3.844642521E-04-2.463109310E-04
 -5.977638034E-04-1.399818213E-04-1.507387110E-04 4.451511194E-04-2.971968597E-04
 -3.868644838E-05-4.489381208E-04 1.794313544E-04 2.134502724E-04 3.841210681E-04
 -2.897528883E-05-1.452013109E-04 1.951082371E-04-2.188911904E-04 4.064332321E-04
 -1.574861153E-04 1.504389374E-04 2.041405561E-04-2.581052117E-04-1.214616249E-04
  2.009356402E-04-1.721423850E-04 9.065716976E-05-6.088371335E-05-1.296847405E-04
  1.119844489E-05 8.144137450E-06-4.720902977E-04-3.766810106E-04-5.205190420E-05
  1.472283148E-03 1.080249178E-01 1.515165292E-01
 ......END OF GEOMETRY SEARCH......
 CPU     0: STEP CPU TIME=     0.00 TOTAL CPU TIME=          1.0 (      0.0 MIN)
 TOTAL WALL CLOCK TIME=          1.4 SECONDS, CPU UTILIZATION IS    73.12%
                580000  WORDS OF DYNAMIC MEMORY USED
 EXECUTION OF GAMESS TERMINATED NORMALLY 21:10:31 27-MAY-2023    
 DDI: 263640 bytes (0.3 MB / 0 MWords) used by master data server.

 ----------------------------------------
 CPU timing information for all processes
 ========================================
 0: 0.640625 + 0.421875 = 1.062500
 1: 0.812500 + 0.250000 = 1.062500
 2: 0.296875 + 0.484375 = 0.781250
 3: 0.406250 + 0.578125 = 0.984375
 ----------------------------------------
           Disk usage (in bytes)       
 ========================================
 ----------------------------------------
            Local date and time          
 ========================================
27.05.2023 - 21:10:31,85                          
