          *******************************************************
          *                                                     *
          *          GAMESS VERSION = 30 SEP 2022 (R2)          *
          *                                                     *
          *              doi.org/10.1063/5.0005188              *
          *                                                     *
          *************** 64 BIT WINDOWS VERSION ****************

  GAMESS HAS BEEN MADE POSSIBLE WITH IMPORTANT CONTRIBUTIONS FROM
  THE FOLLOWING INDIVIDUALS (IN ALPHABETICAL ORDER):

     IVANA ADAMOVIC, CHRISTINE AIKENS, TOMOKO AKAMA,
     MELISA ALKAN, YURI ALEXEEV, YURIKO AOKI, POOJA ARORA,
     TOSHIO ASADA, ANDREY ASADCHEV, KIM K. BALDRIDGE,
     PRADIPTA BANDYOPADHYAY, TAYLOR A. BARNES, MARIA BARYSZ,
     ROB BELL, JONATHAN BENTZ, COLLEEN BERTONI,
     JERRY A. BOATZ, BRETT BODE, KURT BRORSEN, KURT R. BRORSEN,
     LAIMUTIS BYTAUTAS, CALEB CARLIN, LAURA CARRINGTON,
     GALINA CHABAN, BENOIT CHAMPAGNE, WEI CHEN, MAHITO CHIBA,
     DAN CHIPMAN, CHEOL HO CHOI, TANNER CULPITT,
     DIPAYAN DATTA, PAUL DAY, ALBERT DEFUSCO,
     NUWAN DESILVA, J. EMILIANO DEUSTUA,
     TIM DUDLEY, MICHEL DUPUIS, STEVEN T. ELBERT,
     DMITRI FEDOROV, KATHERINE FERRERAS, MICHAEL FILATOV,
     ALEX FINDLATER,GRAHAM FLETCHER, MARK FREITAG,
     CHRISTIAN FRIEDL, DAVID GARMER, 
     IGOR S. GERASIMOV, KURT GLAESEMANN,
     MARK S. GORDON, JEFFREY GOUR, FENG LONG GU,
     EMILIE B. GUIDEZ, ANASTASIA GUNINA, SHARON HAMMES-SCHIFFER,
     MASATAKE HARUTA, KIMIHIKO HIRAO, YASUHIRO IKABATA,
     TZVETELIN IORDANOV, STEPHAN IRLE, KAZUYA ISHIMURA,
     JOE IVANIC, FRANK JENSEN, JAN H. JENSEN, VISVALDAS KAIRYS,
     MUNEAKI KAMIYA, MICHIO KATOUDA, NAOAKI KAWAKAMI, DAN KEMP,
     BERNARD KIRTMAN, KAZUO KITAURA, MARIUSZ KLOBUKOWSKI,
     MASATO KOBAYASHI, KONSTANTIN KOMAROV, PRAKASHAN KORAMBATH,
     JACEK KORCHOWIEC, SHIRO KOSEKI, KAROL KOWALSKI,
     JIMMY KROMANN, STANISLAW KUCHARSKI, HENRY KURTZ,
     SAROM SOK LEANG, SEUNGHOON LEE, HUI LI, SHUHUA LI, WEI LI,
     JESSE LUTZ, ALEKSANDR O. LYKHIN, MARCIN MAKOWSKI,
     JOANI MATO, NIKITA MATSUNAGA, BENEDETTA MENNUCCI,
     GRANT MERRILL, NORIYUKI MINEZAWA, VLADIMIR MIRONOV,
     EISAKU MIYOSHI, JOHN A. MONTGOMERY JR., HIROTOSHI MORI,
     JONATHAN MULLIN, MONIKA MUSIAL, SHIGERU NAGASE,
     TAKESHI NAGATA, HIROMI NAKAI, TAKAHITO NAKAJIMA,
     YUYA NAKAJIMA, HARUYUKI NAKANO, HIROYA NAKATA, SEAN NEDD,
     HEATHER NETZLOFF, KIET A. NGUYEN, YOSHIO NISHIMOTO,
     BOSILJKA NJEGIC, RYAN OLSON, MIKE PAK, ROBERTO PEVERATI,
     BUU PHAM, PIOTR PIECUCH, ANNA POMOGAEVA, DAVID POOLE,
     SPENCER PRUITT, OLIVIER QUINET, LUKE ROSKOP,
     KLAUS RUEDENBERG, ANDREW SAND, TOSAPORN SATTASATHUCHANA,
     NOZOMI SAWADA, MICHAEL W. SCHMIDT, PATRICK E. SCHNEIDER,
     JUNJI SEINO, PRACHI SHARMA, JUN SHEN, JIM SHOEMAKER,
     YINAN SHU, DEJUN SI, JONATHAN SKONE, LYUDMILA SLIPCHENKO,
     TONY SMITH, JIE SONG, MARK SPACKMAN, CASPER STEINMANN,
     WALT STEVENS, PEIFENG SU, SHUJUN SU, CHET SWALINA,
     CHINAMI TAKASHIMA, TETSUYA TAKETSUGU, ZHEN TAO,
     NANDUN THELLAMUREGE, SEIKEN TOKURA, JACOPO TOMASI,
     TSUGUKI TOUMA, TAKAO TSUNEDA, HIROAKI UMEDA,
     JORGE LUIS GALVEZ VALLEJO, YALI WANG, SIMON WEBB,
     AARON WEST, THERESA L. WINDUS, MARTA WLOCH,
     PENG XU, KIYOSHI YAGI, SUSUMU YANAGISAWA, YANG YANG,
     SOOHAENG YOO, TAKESHI YOSHIKAWA, FEDERICO ZAHARIEV,
     TOBY ZENG

  WHO ARE SUPPORTED BY THEIR INSTITUTION/UNIVERSITY/COMPANY/GROUP
  (IN ALPHABETICAL ORDER):

     EP ANALYTICS,
     FACULTES UNIVERSITAIRES NOTRE-DAME DE LA PAIX,
     INSTITUTE FOR MOLECULAR SCIENCE, IOWA STATE UNIVERSITY,
     JACKSON STATE UNIVERSITY, JOHANNES KEPLER UNIVERSITY LINZ,
     KYUNGPOOK NATIONAL UNIVERSITY
     KYUSHU UNIVERSITY, MICHIGAN STATE UNIVERSITY,
     MIE UNIVERSITY, THE MOLECULAR SCIENCES SOFTWARE INSTITUTE,
     MOSCOW STATE UNIVERSITY,
     N. COPERNICUS UNIVERSITY, NAGOYA UNIVERSITY,
     NANJING UNIVERSITY, NAT. INST. OF ADVANCED INDUSTRIAL
     SCIENCE AND TECHNOLOGY, NATIONAL INST. OF STANDARDS AND
     TECHNOLOGY, NESMEYANOV INSTITUTE OF ORGANOELEMENT COMPOUNDS
     OF RUSSIAN ACADEMY OF SCIENCES, OSAKA PREFECTURE UNIVERSITY,
     PENNSYLVANIA STATE UNIVERSITY, TOKYO INSTITUTE OF TECHNOLOGY,
     UNIVERSITY OF AARHUS, UNIVERSITY OF ALBERTA,
     UNIVERSITY OF CALIFORNIA AT SANTA BARBARA,
     UNIVERSITY OF COPENHAGEN, UNIVERSITY OF IOWA,
     UNIVERSITY OF MEMPHIS, UNIVERSITY OF MINNESOTA,
     UNIVERSITY OF NEBRASKA, UNIVERSITY OF NEW ENGLAND,
     UNIVERSITY OF NOTRE DAME, UNIVERSITY OF PISA,
     UNIVERSITY OF SILESIA, UNIVERSITY OF TOKYO,
     UNIVERSITY OF ZURICH, WASEDA UNIVERSITY,
     YALE UNIVERSITY

  GAMESS SOFTWARE MANAGEMENT TEAM FOR THIS RELEASE:
     MARK S. GORDON (TEAM LEAD),
     BRETT BODE (SENIOR ADVISOR),
     GIUSEPPE BARCA,
     COLLEEN BERTONI,
     KRISTOPHER KEIPERT (ADVISOR),
     SAROM S. LEANG (DEVELOPMENT LEAD),
     BUU PHAM,
     JACKSON HAYES (WEBSITE ADMINISTRATOR),
     PENG XU


 PARALLEL VERSION RUNNING ON        2 PROCESSORS IN        2 NODES.

 EXECUTION OF GAMESS BEGUN 21:10:36 27-MAY-2023    

            ECHO OF THE FIRST FEW INPUT CARDS -
 INPUT CARD>! (Energy/Geometry) PM3                                                         
 INPUT CARD> $CONTRL                                                                        
 INPUT CARD>COORD=UNIQUE                                                                    
 INPUT CARD>ICHARG=0                                                                        
 INPUT CARD>MAXIT=200                                                                       
 INPUT CARD>MULT=1                                                                          
 INPUT CARD>RUNTYP=OPTIMIZE                                                                 
 INPUT CARD>SCFTYP=RHF                                                                      
 INPUT CARD>UNITS=ANGS                                                                      
 INPUT CARD>! DFTTYP=PBE                                                                    
 INPUT CARD> $END                                                                           
 INPUT CARD> $DFT                                                                           
 INPUT CARD>METHOD=GRID                                                                     
 INPUT CARD> $END                                                                           
 INPUT CARD> $BASIS                                                                         
 INPUT CARD>! EXTFIL=.T.                                                                    
 INPUT CARD>! GBASIS=GEGSSBAS                                                               
 INPUT CARD>! NGAUSS=6                                                                      
 INPUT CARD>GBASIS=PM3                                                                      
 INPUT CARD>! NDFUNC=1                                                                      
 INPUT CARD>! NPFUNC=1                                                                      
 INPUT CARD> $END                                                                           
 INPUT CARD> $SCF                                                                           
 INPUT CARD>DAMP=.F.                                                                        
 INPUT CARD>DEM=.F.                                                                         
 INPUT CARD>DIIS=.F.                                                                        
 INPUT CARD>DIRSCF=.T.                                                                      
 INPUT CARD>EXTRAP=.T.                                                                      
 INPUT CARD>RSTRCT=.F.                                                                      
 INPUT CARD>SHIFT=.F.                                                                       
 INPUT CARD>SOSCF=.T.                                                                       
 INPUT CARD> $END                                                                           
 INPUT CARD> $STATPT                                                                        
 INPUT CARD>METHOD=QA                                                                       
 INPUT CARD>NSTEP=100                                                                       
 INPUT CARD>OPTTOL=0.001                                                                    
 INPUT CARD> $END                                                                           
 INPUT CARD> $GUESS                                                                         
 INPUT CARD>GUESS=HUCKEL                                                                    
 INPUT CARD> $END                                                                           
 INPUT CARD> $SYSTEM                                                                        
 INPUT CARD>MWORDS=10                                                                       
 INPUT CARD> $END                                                                           
 INPUT CARD> $DATA                                                                          
 INPUT CARD>C44 FULLERENE                                                                   
 INPUT CARD>C1                                                                              
 INPUT CARD>C	6.0	-4.1139	-0.1879	0.5921                                                    
 INPUT CARD>C	6.0	-3.1757	-0.5597	1.5447                                                    
 INPUT CARD>C	6.0	-0.8991	0.3082	2.0638                                                     
 INPUT CARD>C	6.0	-2.2908	0.4727	1.8126                                                     
     10000000 WORDS OF MEMORY AVAILABLE

     BASIS OPTIONS
     -------------
     GBASIS=PM3          IGAUSS=       0      POLAR=NONE    
     NDFUNC=       0     NFFUNC=       0     DIFFSP=       F
     NPFUNC=       0      DIFFS=       F     BASNAM=        


     RUN TITLE
     ---------
 C44 FULLERENE                                                                   

 THE POINT GROUP OF THE MOLECULE IS C1      
 THE ORDER OF THE PRINCIPAL AXIS IS     0

 ATOM      ATOMIC                      COORDINATES (BOHR)
           CHARGE         X                   Y                   Z
 C           6.0    -7.7741437409       -0.3550795131        1.1189067573
 C           6.0    -6.0012028192       -1.0576796353        2.9190597332
 C           6.0    -1.6990526356        0.5824135494        3.9000164935
 C           6.0    -4.3289842927        0.8932734744        3.4253173253
 C           6.0    -7.3948757352        2.1440831057        0.6389163564
 C           6.0    -5.2617530402        2.8642576796        1.9817556433
 C           6.0     2.6138689862        2.2737183084        3.3085322593
 C           6.0     0.0117163011        2.5484844670        3.1314649343
 C           6.0    -6.6083717791        2.4545650855       -1.7689724971
 C           6.0    -4.3437241554        3.6227936911       -1.8899149603
 C           6.0     3.4343880101        3.9009613565       -0.4703527983
 C           6.0     0.8872263512        3.9708812180       -0.9868149108
 C           6.0    -0.9116038165        4.0532732711        1.0444515534
 C           6.0    -3.4515845166        4.0408010795        0.5270445780
 C           6.0     4.3945577844        3.6137230063        1.9401816716
 C           6.0    -6.2221117872        0.0854156146       -2.7487954217
 C           6.0    -7.0919526593       -1.6809112661       -1.0317903893
 C           6.0    -5.3059726283       -3.3867669152       -0.3711421840
 C           6.0    -3.7667908113       -0.0574476700       -3.7308860176
 C           6.0     4.3157562108        0.8534002561       -3.4205930104
 C           6.0     1.6826120195        0.5950747135       -3.8867884115
 C           6.0     0.5330917011       -1.9010643436       -3.7681136195
 C           6.0    -2.1346344757       -2.1548545438       -3.4780406804
 C           6.0    -3.0417029498       -3.8306635497       -1.5705512684
 C           6.0    -0.0268341090        2.5577441244       -3.1439371258
 C           6.0    -2.6155697396        2.2997965271       -3.3425473271
 C           6.0     5.2778157111        2.8001959686       -1.9528428357
 C           6.0     1.2290777824       -4.4310294960       -0.2207199954
 C           6.0    -1.2538331929       -4.4257382632        0.2392393100
 C           6.0     6.0093286410       -1.0996315523       -2.9464607601
 C           6.0     4.7027720930       -3.1172919893       -2.1085562571
 C           6.0     2.2111683782       -3.5670467744       -2.5082333035
 C           6.0    -2.2202390630       -3.5857550617        2.5399807001
 C           6.0    -4.7163781202       -3.1274965097        2.1389808455
 C           6.0     3.0296087035       -3.8333091661        1.5973853774
 C           6.0     2.1026981065       -2.1665708449        3.4986386937
 C           6.0    -0.5497212898       -1.9158042064        3.8072309475
 C           6.0     3.7594208800       -0.0861715050        3.6955481416
 C           6.0     5.2878312588       -3.3818536276        0.3890945809
 C           6.0     7.0413080029       -1.5979522952        0.9361702543
 C           6.0     6.1967894589        0.1498552708        2.6737733000
 C           6.0     7.8032455211       -0.2781676654       -1.2065900432
 C           6.0     7.4818031306        2.2140029672       -0.6585695067
 C           6.0     6.7119287632        2.5229731662        1.7644371547

          INTERNUCLEAR DISTANCES (ANGS.)
          ------------------------------

                1 C          2 C          3 C          4 C          5 C     

   1 C       0.0000000    1.3877684 *  3.5702878    2.2912237 *  1.3615442 *
   2 C       1.3877684 *  0.0000000    2.4911087 *  1.3858817 *  2.2069079 *
   3 C       3.5702878    2.4911087 *  0.0000000    1.4237242 *  3.5701227  
   4 C       2.2912237 *  1.3858817 *  1.4237242 *  0.0000000    2.2900750 *
   5 C       1.3615442 *  2.2069079 *  3.5701227    2.2900750 *  0.0000000  
   6 C       2.2086889 *  2.1694278 *  2.4582189 *  1.3838472 *  1.3872199 *
   7 C       5.7875602    4.8922247    2.4714140 *  3.7464284    5.4819960  
   8 C       4.5244095    3.7119712    1.4378474 *  2.4632479 *  4.1409242  
   9 C       2.2195799 *  3.1164076    4.0902287    3.1133385    1.3504823 *
  10 C       3.2033482    3.6578477    3.7329134    3.1619035    2.2383071 *
  11 C       6.4000004    5.9189040    3.9764105    4.8641834    5.8351253  
  12 C       5.2430580    4.9639178    3.4315695    3.9652093    4.5697576  
  13 C       4.3163990    3.9437026    2.4146488 *  2.7665703 *  3.5828966  
  14 C       3.2774227    3.2713597    2.7194126 *  2.3112840 *  2.3162977 *
  15 C       6.7871636    6.0532891    3.7479005    4.8990114    6.3245842  
  16 C       2.2176226 *  3.0619226    4.2634669    3.4439738    2.1876266 *
  17 C       1.3848593 *  2.1938447 *  4.0484214    3.0913297    2.2145676 *
  18 C       2.2139124 *  2.1646792 *  3.6281290    3.0713421    3.1739183  
  19 C       3.3328906    3.7498786    4.1974010    3.8317395    3.2234197  
  20 C       6.8636791    6.4871836    5.0158267    5.8353548    6.5942446  
  21 C       5.6844083    5.5017176    4.4924046    5.0117054    5.4297355  
  22 C       5.1654639    4.9676918    4.4258441    4.8266522    5.2556066  
  23 C       3.9661890    3.9978995    4.1707123    4.1587611    4.2035577  
  24 C       3.4175537    3.2016180    3.7866717    3.7016460    4.0828848  
  25 C       4.9266711    4.8937968    3.9711404    4.2477497    4.3883165  
  26 C       3.8729060    4.1648260    3.9686226    3.7686222    3.2927442  
  27 C       7.2893096    6.8145805    4.9599243    5.9128677    6.8537097  
  28 C       5.2776236    4.5372024    3.7675424    4.5068335    5.7567007  
  29 C       4.0941540    3.3909806    3.2911717    3.6624087    4.7636152  
  30 C       7.6147426    7.0731613    5.5278806    6.5123628    7.5405309  
  31 C       6.9747040    6.3521994    5.0417604    5.9935255    7.1308231  
  32 C       5.8731365    5.3756562    4.5390181    5.2352476    6.1438741  
  33 C       3.4822345    2.4151915 *  2.3364816 *  2.6613104 *  4.2076066  
  34 C       2.2498920 *  1.3536432 *  2.6966725 *  2.2433200 *  3.2281588  
  35 C       6.0114184    5.0482095    3.6340631    4.7280976    6.3791161  
  36 C       5.4609613    4.3392135    2.4917073 *  3.7692342    5.7230381  
  37 C       4.1618783    2.9579009 *  1.4560227 *  2.5000253 *  4.5329535  
  38 C       6.2553699    5.2068604    2.9120979 *  4.3138377    6.2329660  
  39 C       7.1057526    6.2443991    4.6392440    5.7963270    7.3219746  
  40 C       7.8681332    6.9869602    5.0183272    6.2988901    7.8933415  
  41 C       7.4435424    6.4877502    4.2345788    5.5980201    7.3487260  
  42 C       8.3346493    7.6354138    5.7266588    6.8999892    8.2023512  
  43 C       8.2406257    7.5821108    5.4925158    6.6499109    7.9023712  
  44 C       7.8229902    7.0158994    4.7055457    5.9709441    7.4914061  

                6 C          7 C          8 C          9 C         10 C     

   1 C       2.2086889 *  5.7875602    4.5244095    2.2195799 *  3.2033482  
   2 C       2.1694278 *  4.8922247    3.7119712    3.1164076    3.6578477  
   3 C       2.4582189 *  2.4714140 *  1.4378474 *  4.0902287    3.7329134  
   4 C       1.3838472 *  3.7464284    2.4632479 *  3.1133385    3.1619035  
   5 C       1.3872199 *  5.4819960    4.1409242    1.3504823 *  2.2383071 *
   6 C       0.0000000    4.2378639    2.8610350 *  2.1199604 *  2.1435263 *
   7 C       4.2378639    0.0000000    1.3878220 *  5.5717988    4.6511026  
   8 C       2.8610350 *  1.3878220 *  0.0000000    4.3588492    3.5631457  
   9 C       2.1199604 *  5.5717988    4.3588492    0.0000000    1.3499740 *
  10 C       2.1435263 *  4.6511026    3.5631457    1.3499740 *  0.0000000  
  11 C       4.8126179    2.2200953 *  2.7249785 *  5.4130332    4.1865768  
  12 C       3.6603988    2.6092068 *  2.3517127 *  4.0679579    2.8150836 *
  13 C       2.4374398 *  2.4088806 *  1.4465556 *  3.4669950    2.4003465 *
  14 C       1.3776049 *  3.6528175    2.4252527 *  2.2296609 *  1.3811766 *
  15 C       5.1253150    1.3838616 *  2.4686665 *  6.1749777    5.0487862  
  16 C       2.9473969 *  5.7860746    4.7184330    1.3720005 *  2.1676291 *
  17 C       3.0440183    6.0028499    4.8983236    2.2375785 *  3.1934619  
  18 C       3.5345472    5.5071308    4.6063742    3.2522380    3.8293766  
  19 C       3.4863725    5.1767646    4.3688336    2.2596485 *  2.1988702 *
  20 C       5.9153781    3.7491321    4.2442369    5.9075750    4.8787478  
  21 C       4.9588513    3.9407799    3.9551736    4.6339511    3.7220130  
  22 C       5.0020412    4.4851436    4.3532509    4.5511881    4.0239736  
  23 C       4.2591285    4.9702708    4.4404809    3.5174165    3.3794272  
  24 C       4.1791428    5.1046937    4.4941406    3.8256476    4.0074924  
  25 C       3.8803905    3.6924419    3.3208663    3.5584096    2.4446867 *
  26 C       3.1604379    4.4772451    3.6996004    2.2725412 *  1.3846841 *
  27 C       5.9533658    3.1331520    3.8758521    6.2933109    5.1101827  
  28 C       5.2971409    4.0759330    4.1476401    5.5811046    5.2574339  
  29 C       4.4978144    4.4040265    4.0511056    4.7343644    4.6992486  
  30 C       6.8392350    4.1678738    4.9136974    6.9647679    6.0475327  
  31 C       6.5198707    4.1925854    4.7791723    6.6748297    5.9709312  
  32 C       5.7328786    4.3672824    4.5534928    5.6646838    5.1589419  
  33 C       3.7851929    4.0402501    3.4684480    4.5616262    4.6161833  
  34 C       3.1848941    4.8578787    3.9442936    3.7422654    4.1646381  
  35 C       5.6439134    3.3633637    3.8228566    6.3448417    5.8478461  
  36 C       4.7873818    2.3673573 *  2.7363514 *  5.9160351    5.3994134  
  37 C       3.6809059    2.7905811 *  2.4077126 *  4.9330395    4.6594048  
  38 C       5.1038507    1.4031831 *  2.4425352 *  6.3458801    5.5655456  
  39 C       6.5422277    3.6531894    4.4440460    7.1044028    6.4164968  
  40 C       6.9475527    3.3560082    4.4723279    7.6695010    6.7945597  
  41 C       6.2421625    2.2295282 *  3.5188510    7.2754046    6.3499281  
  42 C       7.3082917    3.8824477    4.9504697    7.7678969    6.7609162  
  43 C       6.8954125    3.3232266    4.4362111    7.4804009    6.3356463  
  44 C       6.3398164    2.3211799 *  3.6186695    7.2926706    6.1891426  

               11 C         12 C         13 C         14 C         15 C     

   1 C       6.4000004    5.2430580    4.3163990    3.2774227    6.7871636  
   2 C       5.9189040    4.9639178    3.9437026    3.2713597    6.0532891  
   3 C       3.9764105    3.4315695    2.4146488 *  2.7194126 *  3.7479005  
   4 C       4.8641834    3.9652093    2.7665703 *  2.3112840 *  4.8990114  
   5 C       5.8351253    4.5697576    3.5828966    2.3162977 *  6.3245842  
   6 C       4.8126179    3.6603988    2.4374398 *  1.3776049 *  5.1253150  
   7 C       2.2200953 *  2.6092068 *  2.4088806 *  3.6528175    1.3838616 *
   8 C       2.7249785 *  2.3517127 *  1.4465556 *  2.4252527 *  2.4686665 *
   9 C       5.4130332    4.0679579    3.4669950    2.2296609 *  6.1749777  
  10 C       4.1865768    2.8150836 *  2.4003465 *  1.3811766 *  5.0487862  
  11 C       0.0000000    1.3758257 *  2.4368297 *  3.6826697    1.3814576 *
  12 C       1.3758257 *  0.0000000    1.4364625 *  2.4320251 *  2.4247780 *
  13 C       2.4368297 *  1.4364625 *  0.0000000    1.3717197 *  2.8571106 *
  14 C       3.6826697    2.4320251 *  1.3717197 *  0.0000000    4.2248532  
  15 C       1.3814576 *  2.4247780 *  2.8571106 *  4.2248532    0.0000000  
  16 C       5.6251735    4.3875179    4.0416850    3.0879668    6.4191868  
  17 C       6.3120080    5.1743708    4.5946594    3.6822615    6.8753484  
  18 C       6.0222773    5.0996258    4.6335076    4.0789325    6.4474850  
  19 C       4.6782697    3.5662478    3.6606663    3.1317714    5.6064354  
  20 C       2.2925261 *  2.7698161 *  4.0127237    4.9095258    3.1910527  
  21 C       2.6810878 *  2.3923584 *  3.4702983    4.0201776    3.7575485  
  22 C       3.8508781    3.4433454    4.1229009    4.4157548    4.6708229  
  23 C       4.6354569    3.8474675    4.1156789    3.9656959    5.4292650  
  24 C       5.3686907    4.6326842    4.5377380    4.3162139    5.8698642  
  25 C       2.4210853 *  1.4478235 *  2.3995737 *  2.7702052 *  3.6089757  
  26 C       3.6438463    2.4024635 *  2.6577102 *  2.2885774 *  4.6967430  
  27 C       1.3807052 *  2.4583111 *  3.6990546    4.8468526    2.1558769 *
  28 C       4.5628393    4.4682076    4.6785545    5.1371001    4.7155543  
  29 C       5.0706355    4.6311495    4.5107239    4.6312906    5.2766817  
  30 C       3.2520669    3.9524349    5.0307786    5.9869142    3.6929775  
  31 C       3.8723479    4.3009739    5.0998984    5.9087615    4.1598124  
  32 C       4.1472229    4.1292069    4.7461787    5.2694744    4.6168718  
  33 C       5.2141507    4.7093023    4.1769448    4.2245610    5.1834466  
  34 C       5.8603324    5.0634811    4.3391811    3.9452118    5.9984690  
  35 C       4.2419532    4.4956179    4.6746775    5.4264052    4.0105521  
  36 C       3.9009100    4.0738051    3.8812729    4.6799107    3.3922369  
  37 C       4.3638874    4.0887550    3.4859004    3.9123910    4.0476850  
  38 C       3.0563184    3.6136918    3.5883442    4.7055111    2.1929867 *
  39 C       4.0026687    4.5926110    5.1344812    6.0680786    3.8211545  
  40 C       3.5587408    4.5083448    5.1631236    6.3072893    3.1384666  
  41 C       2.9741074 *  3.9667688    4.3771825    5.6212231    2.1024110 *
  42 C       3.2229493    4.2969075    5.2858733    6.4448962    3.2043916  
  43 C       2.3225289 *  3.6155940    4.6354379    5.8993613    2.2602626 *
  44 C       2.2222553 *  3.4938919    4.1322762    5.4772260    1.3585362 *

               16 C         17 C         18 C         19 C         20 C     

   1 C       2.2176226 *  1.3848593 *  2.2139124 *  3.3328906    6.8636791  
   2 C       3.0619226    2.1938447 *  2.1646792 *  3.7498786    6.4871836  
   3 C       4.2634669    4.0484214    3.6281290    4.1974010    5.0158267  
   4 C       3.4439738    3.0913297    3.0713421    3.8317395    5.8353548  
   5 C       2.1876266 *  2.2145676 *  3.1739183    3.2234197    6.5942446  
   6 C       2.9473969 *  3.0440183    3.5345472    3.4863725    5.9153781  
   7 C       5.7860746    6.0028499    5.5071308    5.1767646    3.7491321  
   8 C       4.7184330    4.8983236    4.6063742    4.3688336    4.2442369  
   9 C       1.3720005 *  2.2375785 *  3.2522380    2.2596485 *  5.9075750  
  10 C       2.1676291 *  3.1934619    3.8293766    2.1988702 *  4.8787478  
  11 C       5.6251735    6.3120080    6.0222773    4.6782697    2.2925261 *
  12 C       4.3875179    5.1743708    5.0996258    3.5662478    2.7698161 *
  13 C       4.0416850    4.5946594    4.6335076    3.6606663    4.0127237  
  14 C       3.0879668    3.6822615    4.0789325    3.1317714    4.9095258  
  15 C       6.4191868    6.8753484    6.4474850    5.6064354    3.1910527  
  16 C       0.0000000    1.3824233 *  2.2790649 *  1.4014221 *  5.6024796  
  17 C       1.3824233 *  0.0000000    1.3528863 *  2.4236926 *  6.3117545  
  18 C       2.2790649 *  1.3528863 *  0.0000000    2.6321622 *  5.7933632  
  19 C       1.4014221 *  2.4236926 *  2.6321622 *  0.0000000    4.3073043  
  20 C       5.6024796    6.3117545    5.7933632    4.3073043    0.0000000  
  21 C       4.2347222    5.0292475    4.6451740    2.9054714 *  1.4216580 *
  22 C       3.7648976    4.2885314    3.6601855    2.4758087 *  2.4829861 *
  23 C       2.4965773 *  2.9360405 *  2.4381127 *  1.4127130 *  3.7664797  
  24 C       2.7414720 *  2.4431845 *  1.3761197 *  2.3325829 *  4.7181520  
  25 C       3.5359975    4.5009088    4.4556255    2.4348487 *  2.4729862 *
  26 C       2.2614617 *  3.3976162    3.6816638    1.4033395 *  3.7471367  
  27 C       6.2669402    6.9791203    6.5412144    5.1068339    1.3869959 *
  28 C       4.8009434    4.6573771    3.5029773    3.9744060    3.6544649  
  29 C       3.8872978    3.4794453    2.2371034 *  3.3949438    4.4990649  
  30 C       6.5037486    7.0132941    6.2590573    5.2191468    1.3907723 *
  31 C       6.0340207    6.3133784    5.3774979    4.8421337    2.2223944 *
  32 C       4.8649370    5.0835580    4.1366320    3.7249027    2.6353899 *
  33 C       4.0114160    3.3518094    2.2473519 *  3.8945628    5.2373518  
  34 C       3.1961778    2.2319586 *  1.3713310 *  3.5412300    5.9948064  
  35 C       5.7929810    5.6498534    4.5384907    4.9877209    3.6966555  
  36 C       5.6352864    5.4302522    4.4699814    5.0526128    4.1631696  
  37 C       4.7082615    4.3079089    3.4394266    4.4471746    4.8379306  
  38 C       6.2878639    6.3201407    5.5402927    5.5951983    3.8097737  
  39 C       6.5743133    6.6552569    5.6204171    5.5503630    3.0580780  
  40 C       7.3388129    7.5512835    6.6382594    6.2829536    3.0130196  
  41 C       7.1710354    7.3643827    6.5688940    6.2688091    3.3955932  
  42 C       7.4691122    7.9176160    7.1431669    6.2677137    2.2665124 *
  43 C       7.4216465    7.9852130    7.3891497    6.2865162    2.3370151 *
  44 C       7.3629906    7.7779817    7.1764646    6.4085247    3.1491006  

               21 C         22 C         23 C         24 C         25 C     

   1 C       5.6844083    5.1654639    3.9661890    3.4175537    4.9266711  
   2 C       5.5017176    4.9676918    3.9978995    3.2016180    4.8937968  
   3 C       4.4924046    4.4258441    4.1707123    3.7866717    3.9711404  
   4 C       5.0117054    4.8266522    4.1587611    3.7016460    4.2477497  
   5 C       5.4297355    5.2556066    4.2035577    4.0828848    4.3883165  
   6 C       4.9588513    5.0020412    4.2591285    4.1791428    3.8803905  
   7 C       3.9407799    4.4851436    4.9702708    5.1046937    3.6924419  
   8 C       3.9551736    4.3532509    4.4404809    4.4941406    3.3208663  
   9 C       4.6339511    4.5511881    3.5174165    3.8256476    3.5584096  
  10 C       3.7220130    4.0239736    3.3794272    4.0074924    2.4446867 *
  11 C       2.6810878 *  3.8508781    4.6354569    5.3686907    2.4210853 *
  12 C       2.3923584 *  3.4433454    3.8474675    4.6326842    1.4478235 *
  13 C       3.4702983    4.1229009    4.1156789    4.5377380    2.3995737 *
  14 C       4.0201776    4.4157548    3.9656959    4.3162139    2.7702052 *
  15 C       3.7575485    4.6708229    5.4292650    5.8698642    3.6089757  
  16 C       4.2347222    3.7648976    2.4965773 *  2.7414720 *  3.5359975  
  17 C       5.0292475    4.2885314    2.9360405 *  2.4431845 *  4.5009088  
  18 C       4.6451740    3.6601855    2.4381127 *  1.3761197 *  4.4556255  
  19 C       2.9054714 *  2.4758087 *  1.4127130 *  2.3325829 *  2.4348487 *
  20 C       1.4216580 *  2.4829861 *  3.7664797    4.7181520    2.4729862 *
  21 C       0.0000000    1.4555925 *  2.4989583 *  3.6383107    1.4323124 *
  22 C       1.4555925 *  0.0000000    1.4263575 *  2.4440766 *  2.4008607 *
  23 C       2.4989583 *  1.4263575 *  0.0000000    1.4267805 *  2.7375927 *
  24 C       3.6383107    2.4440766 *  1.4267805 *  0.0000000    3.8297494  
  25 C       1.4323124 *  2.4008607 *  2.7375927 *  3.8297494    0.0000000  
  26 C       2.4637530 *  2.7872328 *  2.3720823 *  3.3844226    1.3806898 *
  27 C       2.4553023 *  3.6627883    4.7867343    5.6334102    2.8798523 *
  28 C       3.3007884    2.3349326 *  2.7550611 *  2.3913924 *  4.0634980  
  29 C       3.7737194    2.6788057 *  2.3517684 *  1.3825543 *  4.1573411  
  30 C       2.5088093 *  2.9608675 *  4.3547207    5.0555910    3.7362558  
  31 C       2.7016633 *  2.4605078 *  3.7250433    4.1253853    3.9475070  
  32 C       2.3369657 *  1.4178334 *  2.4719328 *  2.8270845 *  3.4670536  
  33 C       4.5526145    3.7497377    3.2736953    2.2219935 *  4.5785463  
  34 C       5.0512042    4.2319239    3.3115827    2.1856756 *  4.7984154  
  35 C       3.7976034    3.2943036    3.9332705    3.6238657    4.5109852  
  36 C       4.1784129    3.9365896    4.3194992    3.9220122    4.4582319  
  37 C       4.4427498    4.0494525    3.9474026    3.2961074    4.3830696  
  38 C       4.1757772    4.4086939    5.0335777    4.9643570    4.3670615  
  39 C       3.6315881    3.4328338    4.4762659    4.5343661    4.6134668  
  40 C       3.9876910    4.2525259    5.3963969    5.6236322    4.8464005  
  41 C       4.2207314    4.6670209    5.6144965    5.7776987    4.6848529  
  42 C       3.5658918    4.1684368    5.4851692    6.0420271    4.5245693  
  43 C       3.6152119    4.5793751    5.7850524    6.4401955    4.1893611  
  44 C       4.1312163    4.9742451    5.9782353    6.4077264    4.4117096  

               26 C         27 C         28 C         29 C         30 C     

   1 C       3.8729060    7.2893096    5.2776236    4.0941540    7.6147426  
   2 C       4.1648260    6.8145805    4.5372024    3.3909806    7.0731613  
   3 C       3.9686226    4.9599243    3.7675424    3.2911717    5.5278806  
   4 C       3.7686222    5.9128677    4.5068335    3.6624087    6.5123628  
   5 C       3.2927442    6.8537097    5.7567007    4.7636152    7.5405309  
   6 C       3.1604379    5.9533658    5.2971409    4.4978144    6.8392350  
   7 C       4.4772451    3.1331520    4.0759330    4.4040265    4.1678738  
   8 C       3.6996004    3.8758521    4.1476401    4.0511056    4.9136974  
   9 C       2.2725412 *  6.2933109    5.5811046    4.7343644    6.9647679  
  10 C       1.3846841 *  5.1101827    5.2574339    4.6992486    6.0475327  
  11 C       3.6438463    1.3807052 *  4.5628393    5.0706355    3.2520669  
  12 C       2.4024635 *  2.4583111 *  4.4682076    4.6311495    3.9524349  
  13 C       2.6577102 *  3.6990546    4.6785545    4.5107239    5.0307786  
  14 C       2.2885774 *  4.8468526    5.1371001    4.6312906    5.9869142  
  15 C       4.6967430    2.1558769 *  4.7155543    5.2766817    3.6929775  
  16 C       2.2614617 *  6.2669402    4.8009434    3.8872978    6.5037486  
  17 C       3.3976162    6.9791203    4.6573771    3.4794453    7.0132941  
  18 C       3.6816638    6.5412144    3.5029773    2.2371034 *  6.2590573  
  19 C       1.4033395 *  5.1068339    3.9744060    3.3949438    5.2191468  
  20 C       3.7471367    1.3869959 *  3.6544649    4.4990649    1.3907723 *
  21 C       2.4637530 *  2.4553023 *  3.3007884    3.7737194    2.5088093 *
  22 C       2.7872328 *  3.6627883    2.3349326 *  2.6788057 *  2.9608675 *
  23 C       2.3720823 *  4.7867343    2.7550611 *  2.3517684 *  4.3547207  
  24 C       3.3844226    5.6334102    2.3913924 *  1.3825543 *  5.0555910  
  25 C       1.3806898 *  2.8798523 *  4.0634980    4.1573411    3.7362558  
  26 C       0.0000000    4.2495013    4.4220712    4.0961307    4.9102935  
  27 C       4.2495013    0.0000000    4.4803269    5.2833462    2.1645253 *
  28 C       4.4220712    4.4803269    0.0000000    1.3362577 *  3.4039992  
  29 C       4.0961307    5.2833462    1.3362577 *  0.0000000    4.5510840  
  30 C       4.9102935    2.1645253 *  3.4039992    4.5510840    0.0000000  
  31 C       4.8622639    3.1472296    2.2046050 *  3.4581368    1.3470786 *
  32 C       4.0444284    3.7513615    1.3944283 *  2.3837772 *  2.4079718 *
  33 C       4.4084035    5.7284912    2.3803416 *  1.3933472 *  5.3967683  
  34 C       4.2306408    6.5190786    3.4545116    2.1999819 *  6.3724617  
  35 C       5.1274507    4.1553707    1.3905071 *  2.3984872 *  3.2187839  
  36 C       4.9925936    4.2488944    2.3502033 *  2.7493712 *  4.0279889  
  37 C       4.5261934    5.0028747    2.6834491 *  2.3383472 *  5.0006445  
  38 C       5.1812949    3.4514756    3.3725485    3.9568387    3.7495286  
  39 C       5.5164043    3.4982782    2.2417465 *  3.5063943    2.1725304 *
  40 C       5.9577734    2.9368150 *  3.4759632    4.6522913    2.1422288 *
  41 C       5.7599196    2.8631568 *  3.8901099    4.8028423    3.0483269  
  42 C       5.7910447    2.1437239 *  4.1478141    5.3266741    1.3920571 *
  43 C       5.5290296    1.3876483 *  4.8339333    5.8258442    2.2688564 *
  44 C       5.6285489    2.1135119 *  4.8024302    5.6516572    3.1666504  

               31 C         32 C         33 C         34 C         35 C     

   1 C       6.9747040    5.8731365    3.4822345    2.2498920 *  6.0114184  
   2 C       6.3521994    5.3756562    2.4151915 *  1.3536432 *  5.0482095  
   3 C       5.0417604    4.5390181    2.3364816 *  2.6966725 *  3.6340631  
   4 C       5.9935255    5.2352476    2.6613104 *  2.2433200 *  4.7280976  
   5 C       7.1308231    6.1438741    4.2076066    3.2281588    6.3791161  
   6 C       6.5198707    5.7328786    3.7851929    3.1848941    5.6439134  
   7 C       4.1925854    4.3672824    4.0402501    4.8578787    3.3633637  
   8 C       4.7791723    4.5534928    3.4684480    3.9442936    3.8228566  
   9 C       6.6748297    5.6646838    4.5616262    3.7422654    6.3448417  
  10 C       5.9709312    5.1589419    4.6161833    4.1646381    5.8478461  
  11 C       3.8723479    4.1472229    5.2141507    5.8603324    4.2419532  
  12 C       4.3009739    4.1292069    4.7093023    5.0634811    4.4956179  
  13 C       5.0998984    4.7461787    4.1769448    4.3391811    4.6746775  
  14 C       5.9087615    5.2694744    4.2245610    3.9452118    5.4264052  
  15 C       4.1598124    4.6168718    5.1834466    5.9984690    4.0105521  
  16 C       6.0340207    4.8649370    4.0114160    3.1961778    5.7929810  
  17 C       6.3133784    5.0835580    3.3518094    2.2319586 *  5.6498534  
  18 C       5.3774979    4.1366320    2.2473519 *  1.3713310 *  4.5384907  
  19 C       4.8421337    3.7249027    3.8945628    3.5412300    4.9877209  
  20 C       2.2223944 *  2.6353899 *  5.2373518    5.9948064    3.6966555  
  21 C       2.7016633 *  2.3369657 *  4.5526145    5.0512042    3.7976034  
  22 C       2.4605078 *  1.4178334 *  3.7497377    4.2319239    3.2943036  
  23 C       3.7250433    2.4719328 *  3.2736953    3.3115827    3.9332705  
  24 C       4.1253853    2.8270845 *  2.2219935 *  2.1856756 *  3.6238657  
  25 C       3.9475070    3.4670536    4.5785463    4.7984154    4.5109852  
  26 C       4.8622639    4.0444284    4.4084035    4.2306408    5.1274507  
  27 C       3.1472296    3.7513615    5.7284912    6.5190786    4.1553707  
  28 C       2.2046050 *  1.3944283 *  2.3803416 *  3.4545116    1.3905071 *
  29 C       3.4581368    2.3837772 *  1.3933472 *  2.1999819 *  2.3984872 *
  30 C       1.3470786 *  2.4079718 *  5.3967683    6.3724617    3.2187839  
  31 C       0.0000000    1.3563991 *  4.4197053    5.4677626    2.1848139 *
  32 C       1.3563991 *  0.0000000    3.5546450    4.4204740    2.2198241 *
  33 C       4.4197053    3.5546450    0.0000000    1.3596367 *  2.8255623 *
  34 C       5.4677626    4.4204740    1.3596367 *  0.0000000    4.1259475  
  35 C       2.1848139 *  2.2198241 *  2.8255623 *  4.1259475    0.0000000  
  36 C       3.3091519    3.2644537    2.4605829 *  3.7145020    1.4250444 *
  37 C       4.2343703    3.7506015    1.4184802 *  2.4600929 *  2.4463702 *
  38 C       3.5007877    3.8524861    3.7170230    4.8358731    2.3051700 *
  39 C       1.3646769 *  2.2385298 *  4.1343277    5.3760607    1.3762015 *
  40 C       2.1848999 *  3.3077387    5.0839538    6.3065284    2.4552773 *
  41 C       3.1652150    3.9795300    4.8735775    6.0364319    2.7524972 *
  42 C       2.2752841 *  3.5014714    5.9269546    7.0213764    3.4816854  
  43 C       3.2727027    4.2539197    6.2163697    7.2005747    4.1492812  
  44 C       3.7734969    4.6011315    5.7410647    6.7493294    3.8882723  

               36 C         37 C         38 C         39 C         40 C     

   1 C       5.4609613    4.1618783    6.2553699    7.1057526    7.8681332  
   2 C       4.3392135    2.9579009 *  5.2068604    6.2443991    6.9869602  
   3 C       2.4917073 *  1.4560227 *  2.9120979 *  4.6392440    5.0183272  
   4 C       3.7692342    2.5000253 *  4.3138377    5.7963270    6.2988901  
   5 C       5.7230381    4.5329535    6.2329660    7.3219746    7.8933415  
   6 C       4.7873818    3.6809059    5.1038507    6.5422277    6.9475527  
   7 C       2.3673573 *  2.7905811 *  1.4031831 *  3.6531894    3.3560082  
   8 C       2.7363514 *  2.4077126 *  2.4425352 *  4.4440460    4.4723279  
   9 C       5.9160351    4.9330395    6.3458801    7.1044028    7.6695010  
  10 C       5.3994134    4.6594048    5.5655456    6.4164968    6.7945597  
  11 C       3.9009100    4.3638874    3.0563184    4.0026687    3.5587408  
  12 C       4.0738051    4.0887550    3.6136918    4.5926110    4.5083448  
  13 C       3.8812729    3.4859004    3.5883442    5.1344812    5.1631236  
  14 C       4.6799107    3.9123910    4.7055111    6.0680786    6.3072893  
  15 C       3.3922369    4.0476850    2.1929867 *  3.8211545    3.1384666  
  16 C       5.6352864    4.7082615    6.2878639    6.5743133    7.3388129  
  17 C       5.4302522    4.3079089    6.3201407    6.6552569    7.5512835  
  18 C       4.4699814    3.4394266    5.5402927    5.6204171    6.6382594  
  19 C       5.0526128    4.4471746    5.5951983    5.5503630    6.2829536  
  20 C       4.1631696    4.8379306    3.8097737    3.0580780    3.0130196  
  21 C       4.1784129    4.4427498    4.1757772    3.6315881    3.9876910  
  22 C       3.9365896    4.0494525    4.4086939    3.4328338    4.2525259  
  23 C       4.3194992    3.9474026    5.0335777    4.4762659    5.3963969  
  24 C       3.9220122    3.2961074    4.9643570    4.5343661    5.6236322  
  25 C       4.4582319    4.3830696    4.3670615    4.6134668    4.8464005  
  26 C       4.9925936    4.5261934    5.1812949    5.5164043    5.9577734  
  27 C       4.2488944    5.0028747    3.4514756    3.4982782    2.9368150 *
  28 C       2.3502033 *  2.6834491 *  3.3725485    2.2417465 *  3.4759632  
  29 C       2.7493712 *  2.3383472 *  3.9568387    3.5063943    4.6522913  
  30 C       4.0279889    5.0006445    3.7495286    2.1725304 *  2.1422288 *
  31 C       3.3091519    4.2343703    3.5007877    1.3646769 *  2.1848999 *
  32 C       3.2644537    3.7506015    3.8524861    2.2385298 *  3.3077387  
  33 C       2.4605829 *  1.4184802 *  3.7170230    4.1343277    5.0839538  
  34 C       3.7145020    2.4600929 *  4.8358731    5.3760607    6.3065284  
  35 C       1.4250444 *  2.4463702 *  2.3051700 *  1.3762015 *  2.4552773 *
  36 C       0.0000000    1.4192847 *  1.4111844 *  2.4417531 *  2.9595838 *
  37 C       1.4192847 *  0.0000000    2.4780380 *  3.6628079    4.2980057  
  38 C       1.4111844 *  2.4780380 *  0.0000000    2.5994506 *  2.4058909 *
  39 C       2.4417531 *  3.6628079    2.5994506 *  0.0000000    1.3549704 *
  40 C       2.9595838 *  4.2980057    2.4058909 *  1.3549704 *  0.0000000  
  41 C       2.5272198 *  3.7815660    1.4041156 *  2.2772416 *  1.3786370 *
  42 C       4.0370878    5.2276796    3.3643498    2.2764701 *  1.3914245 *
  43 C       4.2796857    5.3314198    3.2665830    3.2286198    2.1989995 *
  44 C       3.5985720    4.6316558    2.3220047 *  3.2956571    2.2311297 *

               41 C         42 C         43 C         44 C     

   1 C       7.4435424    8.3346493    8.2406257    7.8229902  
   2 C       6.4877502    7.6354138    7.5821108    7.0158994  
   3 C       4.2345788    5.7266588    5.4925158    4.7055457  
   4 C       5.5980201    6.8999892    6.6499109    5.9709441  
   5 C       7.3487260    8.2023512    7.9023712    7.4914061  
   6 C       6.2421625    7.3082917    6.8954125    6.3398164  
   7 C       2.2295282 *  3.8824477    3.3232266    2.3211799 *
   8 C       3.5188510    4.9504697    4.4362111    3.6186695  
   9 C       7.2754046    7.7678969    7.4804009    7.2926706  
  10 C       6.3499281    6.7609162    6.3356463    6.1891426  
  11 C       2.9741074 *  3.2229493    2.3225289 *  2.2222553 *
  12 C       3.9667688    4.2969075    3.6155940    3.4938919  
  13 C       4.3771825    5.2858733    4.6354379    4.1322762  
  14 C       5.6212231    6.4448962    5.8993613    5.4772260  
  15 C       2.1024110 *  3.2043916    2.2602626 *  1.3585362 *
  16 C       7.1710354    7.4691122    7.4216465    7.3629906  
  17 C       7.3643827    7.9176160    7.9852130    7.7779817  
  18 C       6.5688940    7.1431669    7.3891497    7.1764646  
  19 C       6.2688091    6.2677137    6.2865162    6.4085247  
  20 C       3.3955932    2.2665124 *  2.3370151 *  3.1491006  
  21 C       4.2207314    3.5658918    3.6152119    4.1312163  
  22 C       4.6670209    4.1684368    4.5793751    4.9742451  
  23 C       5.6144965    5.4851692    5.7850524    5.9782353  
  24 C       5.7776987    6.0420271    6.4401955    6.4077264  
  25 C       4.6848529    4.5245693    4.1893611    4.4117096  
  26 C       5.7599196    5.7910447    5.5290296    5.6285489  
  27 C       2.8631568 *  2.1437239 *  1.3876483 *  2.1135119 *
  28 C       3.8901099    4.1478141    4.8339333    4.8024302  
  29 C       4.8028423    5.3266741    5.8258442    5.6516572  
  30 C       3.0483269    1.3920571 *  2.2688564 *  3.1666504  
  31 C       3.1652150    2.2752841 *  3.2727027    3.7734969  
  32 C       3.9795300    3.5014714    4.2539197    4.6011315  
  33 C       4.8735775    5.9269546    6.2163697    5.7410647  
  34 C       6.0364319    7.0213764    7.2005747    6.7493294  
  35 C       2.7524972 *  3.4816854    4.1492812    3.8882723  
  36 C       2.5272198 *  4.0370878    4.2796857    3.5985720  
  37 C       3.7815660    5.2276796    5.3314198    4.6316558  
  38 C       1.4041156 *  3.3643498    3.2665830    2.3220047 *
  39 C       2.2772416 *  2.2764701 *  3.2286198    3.2956571  
  40 C       1.3786370 *  1.3914245 *  2.1989995 *  2.2311297 *
  41 C       0.0000000    2.2339257 *  2.1829106 *  1.3721872 *
  42 C       2.2339257 *  0.0000000    1.3609803 *  2.2366342 *
  43 C       2.1829106 *  1.3609803 *  0.0000000    1.3552652 *
  44 C       1.3721872 *  2.2366342 *  1.3552652 *  0.0000000  

  * ... LESS THAN  3.000


 TOTAL NUMBER OF BASIS SET SHELLS             =   44
 NUMBER OF CARTESIAN GAUSSIAN BASIS FUNCTIONS =  176
 NUMBER OF ELECTRONS                          =  176
 CHARGE OF MOLECULE                           =    0
 SPIN MULTIPLICITY                            =    1
 NUMBER OF OCCUPIED ORBITALS (ALPHA)          =   88
 NUMBER OF OCCUPIED ORBITALS (BETA )          =   88
 TOTAL NUMBER OF ATOMS                        =   44
 THE NUCLEAR REPULSION ENERGY IS     5242.1811000763

 THE PARAMETERS USED IN THIS CALCULATION ARE DESCRIBED IN:

  C: (PM3): J. J. P. STEWART, J. COMP. CHEM. 10, 209 (1989).                    

 THERE ARE   44 HEAVY AND    0 LIGHT ATOMS,
 YIELDING A TOTAL OF     94600 MOPAC 2E- INTEGRALS.

     $CONTRL OPTIONS
     ---------------
 SCFTYP=RHF          RUNTYP=OPTIMIZE     EXETYP=RUN     
 MPLEVL=       0     CITYP =NONE         CCTYP =NONE         VBTYP =NONE    
 DFTTYP=NONE         TDDFT =NONE    
 MULT  =       1     ICHARG=       0     NZVAR =       0     COORD =UNIQUE  
 PP    =NONE         RELWFN=NONE         LOCAL =NONE         NUMGRD=       F
 ISPHER=      -1     NOSYM =       0     MAXIT =     200     UNITS =ANGS    
 PLTORB=       F     MOLPLT=       F     AIMPAC=       F     FRIEND=        
 NPRINT=       7     IREST =       0     GEOM  =INPUT   
 NORMF =       0     NORMP =       0     ITOL  =      20     ICUT  =       9
 INTTYP=BEST         GRDTYP=BEST         QMTTOL= 1.0E-06

     $SYSTEM OPTIONS
     ---------------
  REPLICATED MEMORY=    10000000 WORDS (ON EVERY NODE).
 DISTRIBUTED MEMDDI=           0 MILLION WORDS IN AGGREGATE,
 MEMDDI DISTRIBUTED OVER   2 PROCESSORS IS           0 WORDS/PROCESSOR.
 TOTAL MEMORY REQUESTED ON EACH PROCESSOR=    10000000 WORDS.
 TIMLIM=      525600.00 MINUTES, OR     365.0 DAYS.
 PARALL= T  BALTYP=  DLB     KDIAG=    0  COREFL= F
 MXSEQ2=     300 MXSEQ3=     150  mem10=         0  mem22=         0

          ----------------
          PROPERTIES INPUT
          ----------------

     MOMENTS            FIELD           POTENTIAL          DENSITY
 IEMOM =       1   IEFLD =       0   IEPOT =       0   IEDEN =       0
 WHERE =COMASS     WHERE =NUCLEI     WHERE =NUCLEI     WHERE =NUCLEI  
 OUTPUT=BOTH       OUTPUT=BOTH       OUTPUT=BOTH       OUTPUT=BOTH    
 IEMINT=       0   IEFINT=       0                     IEDINT=       0
                                                       MORB  =       0
          EXTRAPOLATION IN EFFECT
          SOSCF IN EFFECT
 ORBITAL PRINTING OPTION: NPREO=     1   176     2     1

     -------------------------------
     INTEGRAL TRANSFORMATION OPTIONS
     -------------------------------
     NWORD  =            0
     CUTTRF = 1.0E-09     MPTRAN =       0
     DIRTRF =       T     AOINTS =DUP     

          ----------------------
          INTEGRAL INPUT OPTIONS
          ----------------------
 NOPK  =       1 NORDER=       0 SCHWRZ=       T

     ------------------------------------------
     THE POINT GROUP IS C1 , NAXIS= 0, ORDER= 1
     ------------------------------------------

     DIMENSIONS OF THE SYMMETRY SUBSPACES ARE
 A   =  176

 ..... DONE SETTING UP THE RUN .....
 CPU     0: STEP CPU TIME=     0.00 TOTAL CPU TIME=          0.0 (      0.0 MIN)
 TOTAL WALL CLOCK TIME=          0.0 SECONDS, CPU UTILIZATION IS     0.00%


          -----------------------------
          STATIONARY POINT LOCATION RUN
          -----------------------------

 OBTAINING INITIAL HESSIAN, HESS=GUESS   
 CARTESIAN COORDINATE OPTIMIZATION USING BADGER'S RULE FORCE CONSTANT GUESS

          PARAMETERS CONTROLLING GEOMETRY SEARCH ARE
          METHOD =QA                  UPHESS =BFGS    
          NNEG   =         0          NFRZ   =         0
          NSTEP  =       100          IFOLOW =         1
          HESS   =GUESS               RESTAR =         F
          IHREP  =         0          HSSEND =         F
          NPRT   =         0          NPUN   =         0
          OPTTOL = 1.000E-03          RMIN   = 1.500E-03
          RMAX   = 1.000E-01          RLIM   = 7.000E-02
          DXMAX  = 3.000E-01          PURIFY =         F
          MOVIE  =         F          TRUPD  =         T
          TRMAX  = 5.000E-01          TRMIN  = 5.000E-02
          ITBMAT =         5          STPT   =         F
          STSTEP = 1.000E-02          PROJCT=          T

 BEGINNING GEOMETRY SEARCH POINT NSERCH=   0 ...

 COORDINATES OF ALL ATOMS ARE (ANGS)
   ATOM   CHARGE       X              Y              Z
 ------------------------------------------------------------
 C           6.0  -4.1139000000  -0.1879000000   0.5921000000
 C           6.0  -3.1757000000  -0.5597000000   1.5447000000
 C           6.0  -0.8991000000   0.3082000000   2.0638000000
 C           6.0  -2.2908000000   0.4727000000   1.8126000000
 C           6.0  -3.9132000000   1.1346000000   0.3381000000
 C           6.0  -2.7844000000   1.5157000000   1.0487000000
 C           6.0   1.3832000000   1.2032000000   1.7508000000
 C           6.0   0.0062000000   1.3486000000   1.6571000000
 C           6.0  -3.4970000000   1.2989000000  -0.9361000000
 C           6.0  -2.2986000000   1.9171000000  -1.0001000000
 C           6.0   1.8174000000   2.0643000000  -0.2489000000
 C           6.0   0.4695000000   2.1013000000  -0.5222000000
 C           6.0  -0.4824000000   2.1449000000   0.5527000000
 C           6.0  -1.8265000000   2.1383000000   0.2789000000
 C           6.0   2.3255000000   1.9123000000   1.0267000000
 C           6.0  -3.2926000000   0.0452000000  -1.4546000000
 C           6.0  -3.7529000000  -0.8895000000  -0.5460000000
 C           6.0  -2.8078000000  -1.7922000000  -0.1964000000
 C           6.0  -1.9933000000  -0.0304000000  -1.9743000000
 C           6.0   2.2838000000   0.4516000000  -1.8101000000
 C           6.0   0.8904000000   0.3149000000  -2.0568000000
 C           6.0   0.2821000000  -1.0060000000  -1.9940000000
 C           6.0  -1.1296000000  -1.1403000000  -1.8405000000
 C           6.0  -1.6096000000  -2.0271000000  -0.8311000000
 C           6.0  -0.0142000000   1.3535000000  -1.6637000000
 C           6.0  -1.3841000000   1.2170000000  -1.7688000000
 C           6.0   2.7929000000   1.4818000000  -1.0334000000
 C           6.0   0.6504000000  -2.3448000000  -0.1168000000
 C           6.0  -0.6635000000  -2.3420000000   0.1266000000
 C           6.0   3.1800000000  -0.5819000000  -1.5592000000
 C           6.0   2.4886000000  -1.6496000000  -1.1158000000
 C           6.0   1.1701000000  -1.8876000000  -1.3273000000
 C           6.0  -1.1749000000  -1.8975000000   1.3441000000
 C           6.0  -2.4958000000  -1.6550000000   1.1319000000
 C           6.0   1.6032000000  -2.0285000000   0.8453000000
 C           6.0   1.1127000000  -1.1465000000   1.8514000000
 C           6.0  -0.2909000000  -1.0138000000   2.0147000000
 C           6.0   1.9894000000  -0.0456000000   1.9556000000
 C           6.0   2.7982000000  -1.7896000000   0.2059000000
 C           6.0   3.7261000000  -0.8456000000   0.4954000000
 C           6.0   3.2792000000   0.0793000000   1.4149000000
 C           6.0   4.1293000000  -0.1472000000  -0.6385000000
 C           6.0   3.9592000000   1.1716000000  -0.3485000000
 C           6.0   3.5518000000   1.3351000000   0.9337000000

          ********************
          1 ELECTRON INTEGRALS
          ********************

          **************************
          1 AND 2 ELECTRON INTEGRALS
          **************************

 MOPAC ONE- AND TWO-ELECTRON INTEGRALS REQUIRE    125752 WORDS.
 ...... END OF ONE- AND TWO-ELECTRON INTEGRALS......
 CPU     0: STEP CPU TIME=     0.00 TOTAL CPU TIME=          0.0 (      0.0 MIN)
 TOTAL WALL CLOCK TIME=          0.0 SECONDS, CPU UTILIZATION IS     0.00%
 ...... END OF ONE-ELECTRON INTEGRALS ......
 CPU     0: STEP CPU TIME=     0.00 TOTAL CPU TIME=          0.0 (      0.0 MIN)
 TOTAL WALL CLOCK TIME=          0.0 SECONDS, CPU UTILIZATION IS     0.00%

          -------------
          GUESS OPTIONS
          -------------
          GUESS =HUCKEL            NORB  =       0          NORDER=       0
          MIX   =       F          PRTMO =       F          PUNMO =       F
          TOLZ  = 1.0E-08          TOLE  = 1.0E-05
          SYMDEN=       F          PURIFY=       F

 INITIAL GUESS ORBITALS GENERATED BY HUCKEL   ROUTINE.

 SYMMETRIES FOR INITIAL GUESS ORBITALS FOLLOW.   BOTH SET(S).
    88 ORBITALS ARE OCCUPIED (    0 CORE ORBITALS).
     1=A        2=A        3=A        4=A        5=A        6=A        7=A   
     8=A        9=A       10=A       11=A       12=A       13=A       14=A   
    15=A       16=A       17=A       18=A       19=A       20=A       21=A   
    22=A       23=A       24=A       25=A       26=A       27=A       28=A   
    29=A       30=A       31=A       32=A       33=A       34=A       35=A   
    36=A       37=A       38=A       39=A       40=A       41=A       42=A   
    43=A       44=A       45=A       46=A       47=A       48=A       49=A   
    50=A       51=A       52=A       53=A       54=A       55=A       56=A   
    57=A       58=A       59=A       60=A       61=A       62=A       63=A   
    64=A       65=A       66=A       67=A       68=A       69=A       70=A   
    71=A       72=A       73=A       74=A       75=A       76=A       77=A   
    78=A       79=A       80=A       81=A       82=A       83=A       84=A   
    85=A       86=A       87=A       88=A       89=A       90=A       91=A   
    92=A       93=A       94=A       95=A       96=A       97=A       98=A   
 ...... END OF INITIAL ORBITAL SELECTION ......
 CPU     0: STEP CPU TIME=     0.00 TOTAL CPU TIME=          0.0 (      0.0 MIN)
 TOTAL WALL CLOCK TIME=          0.0 SECONDS, CPU UTILIZATION IS     0.00%

          --------------------------
               R-PM3 SCF CALCULATION
          --------------------------

     NUCLEAR ENERGY =      2111.8439880712
     MAXIT =  200     NPUNCH=    2
     EXTRAP=T  DAMP=F  SHIFT=F  RSTRCT=F  DIIS=F  DEM=F  SOSCF=T
     DENSITY MATRIX CONV=  2.00E-05
     SOSCF WILL OPTIMIZE    7744 ORBITAL ROTATIONS, SOGTOL=   0.250
     MEMORY REQUIRED FOR RHF ITERS=    345576 WORDS.

                                                                                   NONZERO     BLOCKS
 ITER EX DEM     TOTAL ENERGY        E CHANGE  DENSITY CHANGE     ORB. GRAD      INTEGRALS    SKIPPED
   1  0  0     -188.2855631446  -188.2855631446   0.180239635   0.000000000              0          0
          ---------------START SECOND ORDER SCF---------------
   2  1  0     -189.6126152193    -1.3270520747   0.084470645   0.013925523              0          0
   3  2  0     -189.7247809246    -0.1121657053   0.042349884   0.012093296              0          0
   4  3  0     -189.7458529587    -0.0210720341   0.013051728   0.004977160              0          0
   5  4  0     -189.7500944327    -0.0042414740   0.008101020   0.002257676              0          0
   6  5  0     -189.7507401837    -0.0006457510   0.009303997   0.001301015              0          0
   7  6  0     -189.7511443127    -0.0004041290   0.007695872   0.000660891              0          0
   8  7  0     -189.7512863136    -0.0001420009   0.005354339   0.000384749              0          0
   9  8  0     -189.7513463170    -0.0000600034   0.009037079   0.000361630              0          0
  10  9  0     -189.7514116835    -0.0000653665   0.007288046   0.000328592              0          0
  11 10  0     -189.7514510454    -0.0000393619   0.010388035   0.000305701              0          0
  12 11  0     -189.7515016558    -0.0000506104   0.015085894   0.000391869              0          0
  13 12  0     -189.7515730295    -0.0000713737   0.026727011   0.000487505              0          0
  14 13  0     -189.7516974061    -0.0001243766   0.037461845   0.000613043              0          0
  15 14  0     -189.7518746491    -0.0001772430   0.027435188   0.001151839              0          0
  16 15  0     -189.7521481731    -0.0002735241   0.053936712   0.001427506              0          0
  17 16  0     -189.7527413580    -0.0005931849   0.032524279   0.002086050              0          0
  18 17  0     -189.7532453105    -0.0005039525   0.038709992   0.001669549              0          0
  19 18  0     -189.7542778217    -0.0010325113   0.080377637   0.001384574              0          0
  20 19  0     -189.7548326164    -0.0005547947   0.028835036   0.001337866              0          0
  21 20  0     -189.7553932697    -0.0005606533   0.010498230   0.000965866              0          0
  22 21  0     -189.7557438256    -0.0003505559   0.018301068   0.000555778              0          0
  23 22  0     -189.7559349682    -0.0001911426   0.004104198   0.000535518              0          0
  24 23  0     -189.7560051247    -0.0000701564   0.003612709   0.000354474              0          0
  25 24  0     -189.7560463137    -0.0000411890   0.001804698   0.000158349              0          0
  26 25  0     -189.7560584865    -0.0000121728   0.001663074   0.000131798              0          0
  27 26  0     -189.7560650814    -0.0000065949   0.000631032   0.000075272              0          0
  28 27  0     -189.7560669106    -0.0000018292   0.000426745   0.000042920              0          0
  29 28  0     -189.7560676875    -0.0000007769   0.000264936   0.000025948              0          0
  30 29  0     -189.7560679619    -0.0000002744   0.000175638   0.000015773              0          0
  31 30  0     -189.7560680655    -0.0000001036   0.000119923   0.000011487              0          0
  32 31  0     -189.7560681054    -0.0000000399   0.000099473   0.000007417              0          0
  33 32  0     -189.7560681237    -0.0000000183   0.000083112   0.000005492              0          0
  34 33  0     -189.7560681330    -0.0000000093   0.000068533   0.000003841              0          0
  35 34  0     -189.7560681382    -0.0000000052   0.000051049   0.000002353              0          0
  36 35  0     -189.7560681410    -0.0000000028   0.000034142   0.000001939              0          0
  37 36  0     -189.7560681426    -0.0000000016   0.000023502   0.000001681              0          0

          ----------------
          ENERGY CONVERGED
          ----------------
     TIME TO FORM FOCK OPERATORS=       0.0 SECONDS (       0.0 SEC/ITER)
     FOCK TIME ON FIRST ITERATION=       0.0, LAST ITERATION=       0.0
     TIME TO SOLVE SCF EQUATIONS=       0.2 SECONDS (       0.0 SEC/ITER)

 FINAL R-PM3 ENERGY IS     -189.7560681426 AFTER  37 ITERATIONS

 HEAT OF FORMATION IS      1305.14825 KCAL/MOL
 

          ------------
          EIGENVECTORS
          ------------

                      1          2          3          4          5
                   -1.9540    -1.8879    -1.6841    -1.6075    -1.5792
                     A          A          A          A          A   
    1  C  1  S    0.162684   0.210244  -0.026047   0.053064  -0.224215
    2  C  1  X    0.053905   0.067208  -0.000479   0.028040  -0.062473
    3  C  1  Y    0.011076   0.016187  -0.039648  -0.023746  -0.004413
    4  C  1  Z   -0.017903  -0.024272   0.010373   0.027947   0.021793
    5  C  2  S    0.158063   0.188086   0.042719   0.161347  -0.169609
    6  C  2  X    0.018390   0.013754   0.024145   0.043044   0.015075
    7  C  2  Y    0.013972   0.019792  -0.040533  -0.009083  -0.010885
    8  C  2  Z   -0.043392  -0.055029  -0.008719  -0.019871   0.060315
    9  C  3  S    0.114640   0.057908   0.014333   0.205536   0.132016
   10  C  3  X   -0.003650  -0.028982   0.001522   0.012407   0.045076
   11  C  3  Y   -0.003321  -0.002160  -0.045120  -0.021654   0.014894
   12  C  3  Z   -0.022730  -0.013877   0.003338  -0.025007  -0.023439
   13  C  4  S    0.147808   0.155852  -0.025989   0.154741  -0.035592
   14  C  4  X   -0.008226  -0.025372   0.009638   0.019191   0.067639
   15  C  4  Y   -0.007013  -0.007372  -0.042008  -0.036413   0.025375
   16  C  4  Z   -0.038056  -0.045298   0.019099  -0.010064   0.022478
   17  C  5  S    0.167745   0.216306  -0.122888  -0.036456  -0.157455
   18  C  5  X    0.049240   0.060269  -0.043277  -0.014207  -0.018398
   19  C  5  Y   -0.029719  -0.039969  -0.005329  -0.017747   0.060495
   20  C  5  Z   -0.013921  -0.018510   0.019594   0.041937   0.002507
   21  C  6  S    0.164730   0.192048  -0.138095   0.015039  -0.040173
   22  C  6  X    0.005247  -0.005424  -0.010404   0.012294   0.059061
   23  C  6  Y   -0.033686  -0.042245   0.000528  -0.032211   0.045740
   24  C  6  Z   -0.033390  -0.041829   0.044505   0.044656   0.003081
   25  C  7  S    0.138710  -0.101871  -0.110973   0.235166   0.173376
   26  C  7  X    0.013586  -0.035019  -0.017541   0.011342  -0.042858
   27  C  7  Y   -0.012802   0.009888  -0.019008  -0.026774  -0.001832
   28  C  7  Z   -0.028152   0.023988   0.033731  -0.025891  -0.027116
   29  C  8  S    0.115577  -0.002871  -0.086988   0.181319   0.229976
   30  C  8  X    0.003387  -0.032538  -0.007909   0.021952   0.011349
   31  C  8  Y   -0.011036  -0.000814  -0.019697  -0.036018  -0.008448
   32  C  8  Z   -0.018544  -0.000421   0.028626  -0.001183  -0.041628
   33  C  9  S    0.167539   0.208962  -0.149245  -0.148870  -0.069310
   34  C  9  X    0.034533   0.037420  -0.038855  -0.050386   0.030874
   35  C  9  Y   -0.030061  -0.039373   0.002771   0.013091   0.042089
   36  C  9  Z    0.031830   0.042375  -0.029235   0.005979  -0.038446
   37  C 10  S    0.153792   0.164784  -0.175239  -0.180655   0.099610
   38  C 10  X   -0.002906  -0.018118  -0.000856  -0.004201   0.063156
   39  C 10  Y   -0.039981  -0.045762   0.031072   0.051325  -0.006785
   40  C 10  Z    0.024049   0.028085  -0.033670   0.006445  -0.000068
   41  C 11  S    0.152612  -0.134634  -0.174928   0.070589   0.123414
   42  C 11  X    0.013118  -0.034130  -0.009008   0.015393  -0.070126
   43  C 11  Y   -0.034795   0.034770   0.026961  -0.005870  -0.004896
   44  C 11  Z    0.011285  -0.011799  -0.021424   0.057234   0.012960
   45  C 12  S    0.120791  -0.029571  -0.146655  -0.019221   0.254401
   46  C 12  X    0.003750  -0.034218  -0.001732   0.025408  -0.025112
   47  C 12  Y   -0.021919   0.006194   0.015569   0.015001  -0.038663
   48  C 12  Z    0.008338  -0.004167  -0.018674   0.047965   0.019495
   49  C 13  S    0.119200   0.035958  -0.149046   0.039255   0.253668
   50  C 13  X   -0.003411  -0.034325   0.003500   0.027471   0.019456
   51  C 13  Y   -0.023010  -0.007074   0.018406  -0.018661  -0.041130
   52  C 13  Z   -0.008112  -0.004561   0.017601   0.043834  -0.023074
   53  C 14  S    0.146023   0.138184  -0.176894  -0.058946   0.139644
   54  C 14  X   -0.011053  -0.032583   0.007920   0.020483   0.064573
   55  C 14  Y   -0.035863  -0.038000   0.031565   0.007380  -0.010436
   56  C 14  Z   -0.009775  -0.011098   0.018661   0.052103  -0.016097
   57  C 15  S    0.159107  -0.160104  -0.176496   0.189133   0.072621
   58  C 15  X    0.002182  -0.016809   0.002272  -0.011505  -0.064755
   59  C 15  Y   -0.042371   0.045507   0.032878  -0.052233  -0.001488
   60  C 15  Z   -0.024865   0.027358   0.032242   0.005594   0.003773
   61  C 16  S    0.159104   0.192741  -0.059609  -0.132041  -0.079248
   62  C 16  X    0.019833   0.016647  -0.002301  -0.039328   0.036520
   63  C 16  Y    0.011485   0.015487  -0.045991  -0.038982   0.013957
   64  C 16  Z    0.042294   0.055427  -0.014122  -0.001203  -0.055654
   65  C 17  S    0.157834   0.196919   0.023557   0.010999  -0.184757
   66  C 17  X    0.035959   0.040144   0.023486   0.003645  -0.019587
   67  C 17  Y    0.029135   0.040152  -0.037509  -0.028113  -0.033507
   68  C 17  Z    0.023231   0.030452   0.011739   0.041526  -0.048866
   69  C 18  S    0.152239   0.164346   0.160786   0.094496  -0.107669
   70  C 18  X    0.013840   0.002141   0.056187   0.015315   0.038682
   71  C 18  Y    0.037250   0.047009   0.001623   0.005835  -0.045855
   72  C 18  Z    0.013910   0.016137   0.021751   0.051617  -0.025285
   73  C 19  S    0.133841   0.126532  -0.015791  -0.190333   0.088483
   74  C 19  X   -0.003057  -0.020257   0.017697  -0.016079   0.052609
   75  C 19  Y    0.009241   0.012455  -0.049026  -0.034321   0.018929
   76  C 19  Z    0.033015   0.035521  -0.005619  -0.027348   0.002267
   77  C 20  S    0.151113  -0.149068  -0.019288  -0.161212  -0.024968
   78  C 20  X    0.009166  -0.025488  -0.009935   0.012648  -0.069969
   79  C 20  Y   -0.007915   0.007960  -0.041274   0.038034   0.018897
   80  C 20  Z    0.038752  -0.043136  -0.017376  -0.013047  -0.022276
   81  C 21  S    0.115671  -0.052891   0.017121  -0.194184   0.148131
   82  C 21  X    0.004435  -0.028750  -0.001010   0.008143  -0.045286
   83  C 21  Y   -0.003758   0.002586  -0.044246   0.022152   0.011543
   84  C 21  Z    0.023096  -0.012975  -0.002898  -0.023092   0.025369
   85  C 22  S    0.110363  -0.018097   0.140778  -0.193231   0.147661
   86  C 22  X    0.003769  -0.027651   0.005181  -0.014200  -0.016024
   87  C 22  Y    0.006253  -0.000519  -0.031070  -0.023179   0.018819
   88  C 22  Z    0.022701  -0.005071   0.041175  -0.023761   0.023097
   89  C 23  S    0.114048   0.064406   0.127002  -0.136393   0.121889
   90  C 23  X   -0.001969  -0.024266   0.018683  -0.019021   0.031650
   91  C 23  Y    0.011029   0.010139  -0.028666  -0.038877   0.020963
   92  C 23  Z    0.023504   0.016191   0.040131   0.001492   0.009518
   93  C 24  S    0.129369   0.095486   0.222288   0.014904   0.047922
   94  C 24  X    0.000727  -0.019971   0.030720  -0.019473   0.046683
   95  C 24  Y    0.025039   0.022839   0.017099  -0.016307   0.005537
   96  C 24  Z    0.021317   0.018702   0.051402   0.053780  -0.009676
   97  C 25  S    0.113652   0.008075  -0.082139  -0.162570   0.239628
   98  C 25  X   -0.002432  -0.032004   0.008232   0.020216  -0.013633
   99  C 25  Y   -0.011668   0.000703  -0.018912   0.035201  -0.013048
  100  C 25  Z    0.018655   0.000259  -0.028225   0.001268   0.041852
  101  C 26  S    0.132107   0.104468  -0.105247  -0.216666   0.189011
  102  C 26  X   -0.011726  -0.034059   0.016478   0.013175   0.040386
  103  C 26  Y   -0.012891  -0.010609  -0.018002   0.027152  -0.003337
  104  C 26  Z    0.027387   0.024996  -0.033556  -0.024795   0.030779
  105  C 27  S    0.169828  -0.186057  -0.131925  -0.023105  -0.054361
  106  C 27  X   -0.003542  -0.007608   0.007959   0.007390  -0.060823
  107  C 27  Y   -0.034548   0.040592  -0.000742   0.037015   0.042160
  108  C 27  Z    0.034005  -0.039930  -0.044000   0.044102  -0.009889
  109  C 28  S    0.129341  -0.041695   0.291772  -0.053217   0.119625
  110  C 28  X    0.005311  -0.031336  -0.005687  -0.036989  -0.020455
  111  C 28  Y    0.026889  -0.011544   0.047582  -0.014222   0.021690
  112  C 28  Z   -0.000007   0.002240   0.000896   0.047807   0.001756
  113  C 29  S    0.128503   0.047248   0.293503   0.070794   0.106472
  114  C 29  X   -0.004491  -0.031480   0.004956  -0.034265   0.029432
  115  C 29  Y    0.026441   0.012548   0.047480   0.016897   0.018395
  116  C 29  Z    0.000166   0.002228  -0.000721   0.047649  -0.005292
  117  C 30  S    0.163252  -0.182417   0.045816  -0.179442  -0.150415
  118  C 30  X   -0.018678   0.012922  -0.025520   0.041687  -0.020246
  119  C 30  Y    0.014825  -0.019651  -0.038921   0.006306  -0.016534
  120  C 30  Z    0.046102  -0.054655   0.009867  -0.028306  -0.056760
  121  C 31  S    0.157584  -0.152481   0.177027  -0.203573  -0.064383
  122  C 31  X   -0.005496  -0.009153  -0.045255   0.018801  -0.053065
  123  C 31  Y    0.032649  -0.037844  -0.001881  -0.038097  -0.034879
  124  C 31  Z    0.027862  -0.028463   0.036674  -0.008211  -0.016925
  125  C 32  S    0.129530  -0.074368   0.233350  -0.182310   0.084149
  126  C 32  X    0.006481  -0.027127  -0.008573  -0.017463  -0.040283
  127  C 32  Y    0.020968  -0.014518   0.013030  -0.040325   0.011041
  128  C 32  Z    0.024690  -0.015690   0.058281  -0.007265   0.010282
  129  C 33  S    0.126737   0.078376   0.233173   0.192487   0.058844
  130  C 33  X   -0.005146  -0.026697   0.008948  -0.012151   0.044918
  131  C 33  Y    0.020621   0.015248   0.013186   0.041157   0.007107
  132  C 33  Z   -0.024211  -0.016631  -0.058702  -0.009535  -0.006061
  133  C 34  S    0.150628   0.155127   0.175230   0.194988  -0.094632
  134  C 34  X    0.006636  -0.007830   0.046026   0.026017   0.048900
  135  C 34  Y    0.031178   0.038457  -0.001903   0.033923  -0.038102
  136  C 34  Z   -0.026851  -0.029354  -0.036788  -0.007409   0.022099
  137  C 35  S    0.132164  -0.090311   0.220472  -0.004582   0.065095
  138  C 35  X   -0.000222  -0.019914  -0.030515  -0.024729  -0.042322
  139  C 35  Y    0.026153  -0.022182   0.017311   0.017289   0.007023
  140  C 35  Z   -0.021959   0.018198  -0.051267   0.053687   0.002464
  141  C 36  S    0.116430  -0.059270   0.126568   0.151157   0.120623
  142  C 36  X    0.002508  -0.024180  -0.018851  -0.022387  -0.027213
  143  C 36  Y    0.011468  -0.009719  -0.028879   0.039833   0.017683
  144  C 36  Z   -0.024240   0.015436  -0.039936  -0.000835  -0.012343
  145  C 37  S    0.109872   0.022284   0.139781   0.208410   0.131110
  146  C 37  X   -0.002627  -0.027476  -0.004895  -0.011658   0.020615
  147  C 37  Y    0.006209   0.000756  -0.031517   0.023521   0.017251
  148  C 37  Z   -0.022943  -0.005898  -0.041426  -0.027628  -0.021185
  149  C 38  S    0.139853  -0.123034  -0.018072   0.199449   0.079918
  150  C 38  X    0.003273  -0.020075  -0.018277  -0.021549  -0.051912
  151  C 38  Y    0.010515  -0.013134  -0.051118   0.037006   0.013508
  152  C 38  Z   -0.034295   0.034544   0.006000  -0.026706  -0.000967
  153  C 39  S    0.157767  -0.159218   0.160841  -0.102269  -0.079550
  154  C 39  X   -0.014639   0.002357  -0.056452   0.010289  -0.042117
  155  C 39  Y    0.038988  -0.045997   0.001545  -0.010323  -0.042517
  156  C 39  Z   -0.015954   0.017578  -0.023330   0.055292   0.021517
  157  C 40  S    0.169497  -0.198193   0.019757  -0.030687  -0.178529
  158  C 40  X   -0.036885   0.038205  -0.023699   0.005321   0.013210
  159  C 40  Y    0.030622  -0.039741  -0.041278   0.026241  -0.038453
  160  C 40  Z   -0.023890   0.029522  -0.011939   0.048635   0.044508
  161  C 41  S    0.168907  -0.191544  -0.067717   0.126768  -0.087033
  162  C 41  X   -0.020203   0.015381   0.002651  -0.042709  -0.036033
  163  C 41  Y    0.011885  -0.015064  -0.048021   0.040246   0.007250
  164  C 41  Z   -0.043577   0.053676   0.014832   0.006135   0.055793
  165  C 42  S    0.169463  -0.205858  -0.030358  -0.076095  -0.218988
  166  C 42  X   -0.055685   0.065159   0.001458   0.034219   0.057981
  167  C 42  Y    0.011022  -0.015195  -0.039616   0.023725  -0.009897
  168  C 42  Z    0.019948  -0.025294  -0.012377   0.025023  -0.025204
  169  C 43  S    0.169265  -0.205302  -0.120924   0.019376  -0.167179
  170  C 43  X   -0.050201   0.057844   0.041898  -0.011318   0.024188
  171  C 43  Y   -0.033248   0.041916  -0.000990   0.022020   0.058806
  172  C 43  Z    0.013901  -0.017198  -0.020013   0.039840  -0.005417
  173  C 44  S    0.169290  -0.198445  -0.149477   0.136682  -0.089420
  174  C 44  X   -0.037962   0.039294   0.041539  -0.054157  -0.021035
  175  C 44  Y   -0.032382   0.039687   0.006915  -0.010962   0.040809
  176  C 44  Z   -0.031941   0.039980   0.027464   0.009296   0.040104

                      6          7          8          9         10
                   -1.5285    -1.4575    -1.3537    -1.3098    -1.2726
                     A          A          A          A          A   
    1  C  1  S    0.006431   0.047063   0.259705  -0.046983   0.017992
    2  C  1  X   -0.001883   0.032415   0.054711  -0.020648  -0.018328
    3  C  1  Y    0.061174  -0.000946   0.013358   0.088281   0.007160
    4  C  1  Z    0.015617   0.063133  -0.033310   0.015453  -0.066569
    5  C  2  S   -0.009107   0.196101   0.108363  -0.087795  -0.085500
    6  C  2  X   -0.000879   0.047306  -0.063774  -0.007333  -0.008840
    7  C  2  Y    0.065302   0.029159   0.031078   0.059511  -0.035806
    8  C  2  Z    0.025226  -0.008148  -0.061207   0.035233   0.005102
    9  C  3  S    0.128903   0.162559  -0.125425  -0.105180   0.050810
   10  C  3  X    0.004496  -0.052228   0.015969  -0.035350   0.068032
   11  C  3  Y    0.017642   0.009476   0.023938  -0.011933  -0.088358
   12  C  3  Z   -0.018925  -0.028791   0.018982   0.008211   0.012077
   13  C  4  S    0.136972   0.253470  -0.035210   0.015216  -0.149776
   14  C  4  X    0.005530   0.001123  -0.075777  -0.036268   0.030876
   15  C  4  Y    0.042175  -0.012336  -0.006476   0.047735  -0.044360
   16  C  4  Z   -0.029864  -0.034344  -0.011951  -0.027238   0.040788
   17  C  5  S    0.145586   0.003197   0.149530   0.186366   0.034480
   18  C  5  X    0.057419   0.013279  -0.010737   0.071755  -0.022156
   19  C  5  Y    0.016639  -0.005078  -0.089754   0.043027  -0.020790
   20  C  5  Z    0.002832   0.073893   0.005063  -0.009688  -0.083657
   21  C  6  S    0.219374   0.150453  -0.027240   0.206567  -0.174673
   22  C  6  X    0.020036   0.035342  -0.076481  -0.023841  -0.052847
   23  C  6  Y   -0.016137  -0.047690  -0.048976   0.002511   0.021664
   24  C  6  Z   -0.037953   0.038129   0.019660  -0.068801  -0.024067
   25  C  7  S    0.026065  -0.130630   0.175168  -0.106475  -0.041458
   26  C  7  X   -0.032459  -0.074814   0.033881   0.058686  -0.043168
   27  C  7  Y   -0.037683   0.043496   0.008494   0.033411  -0.033214
   28  C  7  Z    0.022919   0.003608  -0.038780  -0.012298   0.016159
   29  C  8  S    0.102639   0.083948   0.009513  -0.169103  -0.047206
   30  C  8  X   -0.028672  -0.061819   0.075983  -0.016235   0.029610
   31  C  8  Y   -0.024044   0.004409   0.016569   0.020652  -0.050232
   32  C  8  Z    0.001727  -0.023727  -0.004546   0.012103   0.033527
   33  C  9  S    0.103112  -0.174888  -0.001173   0.137272   0.186015
   34  C  9  X    0.021233  -0.043501  -0.075357   0.019049   0.015847
   35  C  9  Y    0.023652   0.046503  -0.059346   0.042012  -0.058914
   36  C  9  Z    0.052560   0.030514   0.039933   0.079034  -0.020957
   37  C 10  S    0.110841  -0.117187  -0.201358   0.090957   0.057959
   38  C 10  X   -0.021745   0.031041  -0.038961  -0.067514  -0.048237
   39  C 10  Y   -0.003006   0.060971   0.028164   0.004276  -0.048055
   40  C 10  Z    0.060345   0.041167  -0.015821   0.075332  -0.052861
   41  C 11  S   -0.187296   0.089492   0.180876   0.114297   0.110428
   42  C 11  X   -0.030980  -0.027829  -0.021064   0.101091   0.016858
   43  C 11  Y    0.034254  -0.016054  -0.020123  -0.022182  -0.029498
   44  C 11  Z    0.008570  -0.057649   0.028223   0.011778  -0.066086
   45  C 12  S   -0.086504   0.139469   0.083200  -0.106255   0.023007
   46  C 12  X   -0.045602   0.008390   0.076292   0.045697   0.057665
   47  C 12  Y    0.019905  -0.022972  -0.013855   0.023356  -0.012414
   48  C 12  Z    0.021464  -0.004275   0.011822  -0.001007  -0.040054
   49  C 13  S    0.077809   0.137873  -0.065329  -0.106857  -0.147781
   50  C 13  X   -0.049287  -0.009150   0.080958  -0.043778   0.043970
   51  C 13  Y   -0.018191  -0.024239   0.008231   0.026428   0.015537
   52  C 13  Z    0.021487   0.002616   0.012177   0.001886  -0.012425
   53  C 14  S    0.185842   0.086349  -0.189586   0.110244  -0.162510
   54  C 14  X   -0.033625   0.030137  -0.007089  -0.101791  -0.025833
   55  C 14  Y   -0.039516  -0.015969   0.026127  -0.026682   0.023145
   56  C 14  Z    0.013664   0.054036   0.029507  -0.001383  -0.051327
   57  C 15  S   -0.126276  -0.116506   0.180897   0.129508  -0.076222
   58  C 15  X   -0.017418  -0.026112  -0.052340   0.067010  -0.019402
   59  C 15  Y    0.009281   0.060780  -0.025364  -0.007662   0.038500
   60  C 15  Z    0.054721  -0.041173  -0.008365  -0.068105  -0.044963
   61  C 16  S   -0.062997  -0.241425   0.046255  -0.090017   0.186367
   62  C 16  X   -0.028100  -0.048105  -0.063117  -0.028485  -0.009738
   63  C 16  Y    0.053944  -0.024938  -0.033735   0.060786   0.055111
   64  C 16  Z    0.003765  -0.016937   0.062298   0.000785   0.036584
   65  C 17  S   -0.124445  -0.094633   0.190227  -0.177457   0.078842
   66  C 17  X   -0.053512  -0.027139  -0.004694  -0.049808  -0.010131
   67  C 17  Y    0.034064  -0.032670   0.051988   0.026612   0.061712
   68  C 17  Z   -0.005153   0.052351   0.052172  -0.022271  -0.022714
   69  C 18  S   -0.244652  -0.032325  -0.007038  -0.155513  -0.064738
   70  C 18  X   -0.047118  -0.005614  -0.091576   0.052159  -0.037744
   71  C 18  Y   -0.025845  -0.011369   0.052209  -0.060919   0.010712
   72  C 18  Z   -0.003144   0.058926  -0.005296  -0.007909   0.005470
   73  C 19  S   -0.139317  -0.227748  -0.096251  -0.139473   0.013329
   74  C 19  X   -0.023749   0.031322  -0.011663  -0.006804  -0.075818
   75  C 19  Y    0.040368  -0.016801  -0.037045  -0.000113   0.069335
   76  C 19  Z   -0.019502  -0.043261  -0.014725  -0.015831   0.013738
   77  C 20  S   -0.113556   0.256042   0.053026  -0.006784   0.221724
   78  C 20  X    0.011454   0.000885  -0.079622   0.014127   0.027284
   79  C 20  Y   -0.043801  -0.009550  -0.000943   0.041581   0.042485
   80  C 20  Z   -0.024033   0.035461  -0.011684   0.015863   0.043357
   81  C 21  S   -0.130084   0.166587   0.145659  -0.070162   0.038336
   82  C 21  X    0.012173   0.049764   0.017485   0.025568   0.067713
   83  C 21  Y   -0.018019   0.009961  -0.021060  -0.024978   0.061996
   84  C 21  Z   -0.018916   0.029356   0.021898  -0.005837   0.014212
   85  C 22  S   -0.100116   0.039319   0.141631   0.053814  -0.195634
   86  C 22  X    0.041913   0.057088   0.055131   0.008050   0.041691
   87  C 22  Y   -0.025085   0.022137   0.000634  -0.062373   0.033825
   88  C 22  Z   -0.003488   0.000880   0.024848   0.037637  -0.032557
   89  C 23  S   -0.199115  -0.122234  -0.024484  -0.013083  -0.219981
   90  C 23  X    0.017909   0.042766   0.040634   0.052467  -0.039561
   91  C 23  Y   -0.009581  -0.019706  -0.007246  -0.058844   0.020766
   92  C 23  Z   -0.037570  -0.018457  -0.018676   0.022600  -0.032135
   93  C 24  S   -0.244250  -0.088255  -0.114033   0.061305  -0.176538
   94  C 24  X    0.018070   0.002902  -0.004037   0.096170  -0.030267
   95  C 24  Y   -0.042118  -0.028505  -0.001924  -0.031657  -0.029278
   96  C 24  Z   -0.031055   0.022757  -0.051144   0.026440   0.024530
   97  C 25  S   -0.117629   0.088710   0.014090  -0.157613   0.028736
   98  C 25  X   -0.022458   0.061032   0.076633   0.022620   0.037032
   99  C 25  Y    0.026294   0.001416  -0.019011   0.012298   0.011553
  100  C 25  Z   -0.000881   0.023943  -0.000626  -0.015383   0.000641
  101  C 26  S   -0.052714  -0.123494  -0.164210  -0.128790   0.039198
  102  C 26  X   -0.029964   0.075234   0.041389  -0.040239  -0.049172
  103  C 26  Y    0.039684   0.040165  -0.008122   0.028620   0.005582
  104  C 26  Z    0.019386  -0.005479  -0.039757   0.005375  -0.000085
  105  C 27  S   -0.199490   0.160746   0.006835   0.173316   0.224280
  106  C 27  X    0.020045  -0.032425  -0.084043   0.018133  -0.037602
  107  C 27  Y    0.008364  -0.049496   0.043811   0.017619  -0.043298
  108  C 27  Z   -0.038488  -0.035916   0.007540   0.071612  -0.027380
  109  C 28  S    0.103545  -0.052861   0.097472   0.280958   0.000866
  110  C 28  X    0.082916   0.001711   0.077153  -0.059844   0.007541
  111  C 28  Y    0.022067  -0.005710   0.025728   0.025301   0.000399
  112  C 28  Z    0.023946  -0.020546  -0.043735  -0.006745   0.104109
[...]
  114  C 29  X    0.006648  -0.013950  -0.007462  -0.029611  -0.033547
  115  C 29  Y    0.188068  -0.049734  -0.007931  -0.113124   0.110363
  116  C 29  Z   -0.011716  -0.053567  -0.022766   0.014335   0.009846
  117  C 30  S    0.026976   0.053062   0.041569   0.089577   0.023192
  118  C 30  X    0.107158   0.105956   0.024386   0.084245   0.027996
  119  C 30  Y   -0.089177  -0.046550  -0.020634  -0.013277   0.031597
  120  C 30  Z   -0.195184  -0.180900  -0.084824  -0.116555  -0.015370
  121  C 31  S   -0.036456  -0.026275  -0.038795  -0.025416   0.026308
  122  C 31  X   -0.105496  -0.049319  -0.050004  -0.025750   0.033710
  123  C 31  Y    0.203135   0.019921   0.052083  -0.004966  -0.106903
  124  C 31  Z    0.181205   0.030760   0.037093   0.031161  -0.060728
  125  C 32  S   -0.010893  -0.038525  -0.028229  -0.059387  -0.063792
  126  C 32  X    0.028341   0.027049   0.027092   0.029705   0.014490
  127  C 32  Y    0.004699   0.169469   0.055201   0.066618   0.136673
  128  C 32  Z   -0.012359   0.174047   0.055798   0.075058   0.088185
  129  C 33  S   -0.025505   0.038162   0.017009  -0.058024  -0.073323
  130  C 33  X    0.002398   0.032537   0.025850  -0.035858  -0.010695
  131  C 33  Y    0.063835  -0.163579   0.045994   0.048677   0.156899
  132  C 33  Z   -0.066940   0.171001  -0.002556  -0.046433  -0.142060
  133  C 34  S    0.015361   0.018828   0.032779  -0.001578   0.022830
  134  C 34  X   -0.045671  -0.025213  -0.039011   0.011884  -0.037695
  135  C 34  Y   -0.102304   0.039403  -0.039228  -0.014145  -0.128048
  136  C 34  Z    0.094794  -0.029575   0.052862  -0.019580   0.078062
  137  C 35  S    0.001952   0.027512  -0.017489  -0.058427  -0.021160
  138  C 35  X    0.046070   0.019462  -0.021267   0.013974   0.034886
  139  C 35  Y   -0.116764  -0.166056   0.025805   0.097696   0.035168
  140  C 35  Z    0.075261   0.133873   0.019325  -0.085512   0.011995
  141  C 36  S    0.022596  -0.031913  -0.024089   0.057930   0.010595
  142  C 36  X    0.020616  -0.031420  -0.026440   0.050252   0.003626
  143  C 36  Y   -0.035030   0.085830   0.026279  -0.152455   0.072972
  144  C 36  Z    0.078790  -0.134598  -0.123327   0.223535  -0.136849
  145  C 37  S    0.012043  -0.024601  -0.041032   0.037027   0.052162
  146  C 37  X   -0.003188   0.027445   0.023804  -0.040703  -0.027745
  147  C 37  Y   -0.005033   0.062038   0.002938  -0.020761  -0.082360
  148  C 37  Z    0.028073  -0.180972  -0.131469   0.043520   0.168460
  149  C 38  S   -0.034157   0.013953   0.063169  -0.019146  -0.034212
  150  C 38  X   -0.028555  -0.024387   0.019208   0.027530  -0.007602
  151  C 38  Y    0.023885  -0.020784  -0.004990   0.032008  -0.008661
  152  C 38  Z   -0.210430   0.104929   0.231180  -0.196980  -0.021183
  153  C 39  S   -0.041481   0.021516   0.052078  -0.019800  -0.016023
  154  C 39  X   -0.115504   0.047403   0.054455  -0.059983   0.012417
  155  C 39  Y    0.224490  -0.016673  -0.068343   0.019490   0.003519
  156  C 39  Z   -0.079956  -0.008684  -0.002046  -0.023377   0.013146
  157  C 40  S    0.016753  -0.046998  -0.035735   0.092508   0.002049
  158  C 40  X    0.103264  -0.189189  -0.033298   0.179444  -0.027069
  159  C 40  Y   -0.105853   0.124224   0.019898  -0.084915   0.027958
  160  C 40  Z    0.056912  -0.111751   0.009837   0.062125  -0.055080
  161  C 41  S    0.010933   0.036845   0.006485  -0.076756   0.036464
  162  C 41  X    0.020188   0.115817  -0.023967  -0.086887   0.056108
  163  C 41  Y    0.004025  -0.059196   0.038806   0.008227   0.006184
  164  C 41  Z    0.062042   0.137135  -0.093445  -0.048526   0.079098
  165  C 42  S    0.037013  -0.016245   0.029385  -0.057289  -0.051919
  166  C 42  X    0.200319  -0.078418   0.119510  -0.113933  -0.119138
  167  C 42  Y   -0.000749   0.009968  -0.014370   0.079376   0.007994
  168  C 42  Z   -0.050719   0.069486  -0.031925   0.032072   0.047113
  169  C 43  S   -0.055546   0.012010  -0.030762  -0.049717   0.059491
  170  C 43  X   -0.231468   0.046052  -0.088303  -0.037340   0.116067
  171  C 43  Y   -0.120888   0.015706  -0.037483  -0.087648   0.058745
  172  C 43  Z    0.062156  -0.029043   0.066365   0.007856  -0.018367
  173  C 44  S    0.004695   0.018925  -0.065057   0.072653  -0.042526
  174  C 44  X    0.000447   0.053842  -0.112526   0.092620  -0.053142
  175  C 44  Y   -0.025729   0.092359  -0.132479   0.053545  -0.008183
  176  C 44  Z   -0.043241   0.061955  -0.128335   0.054832  -0.012845

                     96         97         98
                   -0.0538    -0.0525    -0.0393
                     A          A          A   
    1  C  1  S    0.114597   0.043132   0.115129
    2  C  1  X   -0.156360  -0.051826  -0.157188
    3  C  1  Y   -0.031138   0.025359   0.001807
    4  C  1  Z    0.018103   0.013023   0.078731
    5  C  2  S   -0.070522  -0.013210  -0.129753
    6  C  2  X    0.059323   0.015722   0.110863
    7  C  2  Y    0.013269  -0.023062   0.052054
    8  C  2  Z   -0.031786   0.002982  -0.184799
    9  C  3  S    0.005162  -0.002492   0.031144
   10  C  3  X   -0.008567   0.006525   0.012794
   11  C  3  Y   -0.009769  -0.005959  -0.011536
   12  C  3  Z    0.053494  -0.086792   0.112656
   13  C  4  S    0.008822   0.008130   0.029657
   14  C  4  X   -0.003677   0.005777  -0.059644
   15  C  4  Y   -0.058775  -0.000282  -0.055595
   16  C  4  Z   -0.100403   0.071365   0.037134
   17  C  5  S   -0.075640  -0.082744  -0.141293
   18  C  5  X    0.103045   0.138772   0.132560
   19  C  5  Y   -0.049930  -0.101545  -0.078401
   20  C  5  Z   -0.055341  -0.018825  -0.019671
   21  C  6  S    0.029865   0.036682   0.040870
   22  C  6  X   -0.069925  -0.043383  -0.072837
   23  C  6  Y    0.036210   0.012422   0.001179
   24  C  6  Z    0.053424  -0.014253  -0.023514
   25  C  7  S    0.008720   0.019890  -0.003622
   26  C  7  X    0.013578  -0.014002   0.021891
   27  C  7  Y   -0.022768   0.092190  -0.001013
   28  C  7  Z   -0.020910   0.221697  -0.076242
   29  C  8  S    0.003635  -0.033820   0.016355
   30  C  8  X   -0.029827   0.016772   0.000464
   31  C  8  Y    0.081137  -0.130075   0.036308
   32  C  8  Z    0.097890  -0.165156   0.015538
   33  C  9  S    0.014850   0.075755   0.144109
   34  C  9  X    0.002356  -0.114374  -0.123508
   35  C  9  Y    0.029144   0.075145   0.050182
   36  C  9  Z    0.042646  -0.059192  -0.071140
   37  C 10  S   -0.039595  -0.030405  -0.061244
   38  C 10  X    0.000939   0.028244   0.055030
   39  C 10  Y   -0.071800   0.010724  -0.005495
   40  C 10  Z    0.019745   0.005875  -0.007681
   41  C 11  S   -0.011867  -0.068794   0.022326
   42  C 11  X   -0.021215  -0.026487   0.000352
   43  C 11  Y    0.102725  -0.305527   0.001037
   44  C 11  Z   -0.002183   0.037242   0.044242
   45  C 12  S   -0.017904   0.008138   0.000996
   46  C 12  X    0.028324   0.033969  -0.006402
   47  C 12  Y   -0.189518   0.184813   0.005649
   48  C 12  Z    0.096281  -0.063731   0.003360
   49  C 13  S   -0.015378   0.031019  -0.024862
   50  C 13  X   -0.004588   0.014939  -0.009811
   51  C 13  Y   -0.148593   0.006172  -0.055601
   52  C 13  Z   -0.064684   0.009118  -0.015364
   53  C 14  S    0.040298  -0.010474   0.031121
   54  C 14  X   -0.006055  -0.002064  -0.004604
   55  C 14  Y    0.177394  -0.018123   0.039807
   56  C 14  Z    0.006281  -0.019519  -0.010906
   57  C 15  S    0.001948   0.054357  -0.096274
   58  C 15  X    0.011921   0.013698  -0.070406
   59  C 15  Y    0.015364   0.096269  -0.080575
   60  C 15  Z    0.014648   0.003700  -0.038553
   61  C 16  S    0.092024  -0.022501  -0.117082
   62  C 16  X   -0.142616   0.021857   0.117174
   63  C 16  Y   -0.057553  -0.035015  -0.030808
   64  C 16  Z   -0.193617  -0.019345   0.119111
   65  C 17  S   -0.097891   0.005287   0.034230
   66  C 17  X    0.146504  -0.034959  -0.049311
   67  C 17  Y    0.006981  -0.043277  -0.072731
   68  C 17  Z    0.045851  -0.040280  -0.127213
   69  C 18  S   -0.025318  -0.015501  -0.067051
   70  C 18  X    0.013441   0.044244   0.059623
   71  C 18  Y    0.131742   0.065281   0.068436
   72  C 18  Z    0.001228   0.025786  -0.041792
   73  C 19  S   -0.046145  -0.012782   0.051566
   74  C 19  X    0.079734   0.008504  -0.039973
   75  C 19  Y   -0.011122   0.005294   0.004860
   76  C 19  Z    0.139279   0.123454  -0.052998
   77  C 20  S   -0.042298   0.055230   0.017233
   78  C 20  X   -0.032314   0.053534   0.045114
   79  C 20  Y   -0.066784   0.063446  -0.053890
   80  C 20  Z    0.148683  -0.322047  -0.060135
   81  C 21  S    0.004101  -0.056709   0.029461
   82  C 21  X    0.030552  -0.013660  -0.017093
   83  C 21  Y   -0.011718  -0.070738  -0.017188
   84  C 21  Z   -0.033568   0.337328  -0.034490
   85  C 22  S    0.000489  -0.014697  -0.024092
   86  C 22  X   -0.010531  -0.010471  -0.014905
   87  C 22  Y    0.030099   0.102597   0.030534
   88  C 22  Z    0.031742   0.096455   0.175513
   89  C 23  S   -0.034674  -0.001137  -0.006043
   90  C 23  X    0.020345  -0.007392   0.002009
   91  C 23  Y    0.092842  -0.047231  -0.080089
   92  C 23  Z    0.029969  -0.141530  -0.107687
   93  C 24  S    0.076681   0.032398  -0.000108
   94  C 24  X   -0.022480   0.006704  -0.004441
   95  C 24  Y   -0.222512  -0.087461   0.042602
   96  C 24  Z   -0.132558  -0.022369   0.050559
   97  C 25  S    0.016495   0.006338   0.004784
   98  C 25  X    0.045031   0.032297  -0.003221
   99  C 25  Y    0.156821   0.060519   0.034079
  100  C 25  Z   -0.163002  -0.100407  -0.029460
  101  C 26  S    0.022675   0.022196  -0.008994
  102  C 26  X   -0.019773  -0.000070  -0.013942
  103  C 26  Y   -0.014514  -0.024241  -0.013287
  104  C 26  Z    0.039127   0.030786   0.068468
  105  C 27  S    0.070175   0.006264   0.070597
  106  C 27  X    0.064099   0.004657   0.103757
  107  C 27  Y    0.053567   0.078919   0.025854
  108  C 27  Z   -0.065412  -0.011179   0.000327
  109  C 28  S   -0.033583  -0.009523   0.012942
  110  C 28  X   -0.032606  -0.026582   0.017817
  111  C 28  Y    0.041882  -0.072955  -0.055564
  112  C 28  Z    0.004332   0.006560   0.017722
  113  C 29  S   -0.050502  -0.053479  -0.006301
  114  C 29  X    0.045117   0.043436  -0.007125
  115  C 29  Y    0.121498   0.223489   0.017183
  116  C 29  Z   -0.014121  -0.021576  -0.017327
  117  C 30  S   -0.014289  -0.000109  -0.111400
  118  C 30  X    0.003547  -0.007482  -0.122160
  119  C 30  Y   -0.004927  -0.034635   0.034516
  120  C 30  Z   -0.088345   0.030037   0.139518
  121  C 31  S    0.026558  -0.064933   0.080411
  122  C 31  X    0.012153  -0.073218   0.062944
  123  C 31  Y   -0.023515   0.185703  -0.052305
  124  C 31  Z    0.042616   0.111726  -0.051343
  125  C 32  S    0.022151   0.066237  -0.021659
  126  C 32  X   -0.025611   0.031467  -0.036761
  127  C 32  Y   -0.057798  -0.204861  -0.042203
  128  C 32  Z   -0.019607  -0.171141  -0.054207
  129  C 33  S    0.039591   0.051251  -0.030952
  130  C 33  X    0.039407   0.019126   0.043416
  131  C 33  Y   -0.048985  -0.114066  -0.002428
  132  C 33  Z    0.010177   0.065846   0.001125
  133  C 34  S    0.037250  -0.017592   0.115732
  134  C 34  X   -0.036068   0.023870  -0.089679
  135  C 34  Y   -0.032418   0.080328  -0.079041
  136  C 34  Z    0.007557  -0.066758   0.062302
  137  C 35  S    0.084646   0.032638  -0.034852
  138  C 35  X    0.045188  -0.015093  -0.015062
  139  C 35  Y   -0.250523  -0.055156   0.099843
  140  C 35  Z    0.144740   0.042109  -0.085994
  141  C 36  S   -0.028561  -0.028906   0.003231
  142  C 36  X   -0.011914  -0.009151  -0.000977
  143  C 36  Y    0.064200   0.100584  -0.102348
  144  C 36  Z    0.028930  -0.139099   0.081573
  145  C 37  S   -0.020594  -0.008873  -0.020981
  146  C 37  X    0.028230   0.027170   0.014639
  147  C 37  Y    0.038291  -0.028587   0.018031
  148  C 37  Z   -0.061967   0.174865  -0.173117
  149  C 38  S   -0.046241  -0.012136   0.075198
  150  C 38  X   -0.077569  -0.010953   0.079027
  151  C 38  Y    0.001931  -0.019342  -0.006057
  152  C 38  Z   -0.165291  -0.034671   0.106966
  153  C 39  S   -0.058687   0.023459  -0.030329
  154  C 39  X   -0.087608   0.020301  -0.040807
  155  C 39  Y    0.246934  -0.014862  -0.007740
  156  C 39  Z   -0.036484  -0.036694   0.032449
  157  C 40  S   -0.057215  -0.026056   0.045850
  158  C 40  X   -0.081590   0.028975   0.063113
  159  C 40  Y   -0.037447  -0.012751  -0.063448
  160  C 40  Z   -0.024390   0.003426   0.142424
  161  C 41  S    0.080234   0.039049  -0.170188
  162  C 41  X    0.123860   0.001360  -0.162442
  163  C 41  Y   -0.038998   0.015377  -0.043490
  164  C 41  Z    0.195956  -0.005417  -0.195906
  165  C 42  S    0.080414   0.001830   0.120305
  166  C 42  X    0.160067  -0.017615   0.163623
  167  C 42  Y   -0.018397   0.002714   0.005293
  168  C 42  Z   -0.013958  -0.007718  -0.088721
  169  C 43  S   -0.077102   0.016951  -0.188362
  170  C 43  X   -0.147802  -0.001840  -0.169846
  171  C 43  Y   -0.086038  -0.001539  -0.121567
  172  C 43  Z    0.079584   0.005916   0.009517
  173  C 44  S   -0.005395  -0.046687   0.207385
  174  C 44  X   -0.023907  -0.031100   0.179888
  175  C 44  Y   -0.011534  -0.039790   0.069580
  176  C 44  Z   -0.074215  -0.032593   0.090126

     ----------------------------------------------------------------
     PROPERTY VALUES FOR THE RHF   SELF-CONSISTENT FIELD WAVEFUNCTION
     ----------------------------------------------------------------

                    -------------
                    MOPAC CHARGES
                    -------------
         ATOM NO.   TYPE          CHARGE        ATOM  ELECTRON DENSITY
           1         C             -0.0891          4.0891
           2         C              0.0500          3.9500
           3         C              0.0029          3.9971
           4         C             -0.0174          4.0174
           5         C              0.0020          3.9980
           6         C              0.0137          3.9863
           7         C             -0.0226          4.0226
           8         C              0.0202          3.9798
           9         C              0.0657          3.9343
          10         C             -0.0479          4.0479
          11         C             -0.0171          4.0171
          12         C              0.0083          3.9917
          13         C             -0.0134          4.0134
          14         C              0.0214          3.9786
          15         C              0.0310          3.9690
          16         C             -0.0556          4.0556
          17         C              0.0854          3.9146
          18         C             -0.0484          4.0484
          19         C              0.0150          3.9850
          20         C             -0.0051          4.0051
          21         C              0.0120          3.9880
          22         C              0.0462          3.9538
          23         C             -0.0046          4.0046
          24         C              0.0148          3.9852
          25         C             -0.0137          4.0137
          26         C              0.0071          3.9929
          27         C              0.0186          3.9814
          28         C              0.0063          3.9937
          29         C             -0.0340          4.0340
          30         C             -0.0154          4.0154
          31         C              0.0203          3.9797
          32         C             -0.0415          4.0415
          33         C              0.0317          3.9683
          34         C             -0.0343          4.0343
          35         C             -0.0045          4.0045
          36         C              0.0189          3.9811
          37         C              0.0172          3.9828
          38         C             -0.0132          4.0132
          39         C             -0.0167          4.0167
          40         C              0.0189          3.9811
          41         C              0.0164          3.9836
          42         C              0.0202          3.9798
          43         C             -0.0182          4.0182
          44         C             -0.0517          4.0517

          ---------------------
          ELECTROSTATIC MOMENTS
          ---------------------

 POINT   1           X           Y           Z (ANGS)      CHARGE
                 0.000000    0.000000    0.000000       -0.00 (A.U.)
         DX          DY          DZ         /D/  (DEBYE)
    -0.068087    0.128885   -0.180457    0.231974
 ...... END OF PROPERTY EVALUATION ......
 CPU     0: STEP CPU TIME=     0.05 TOTAL CPU TIME=          0.9 (      0.0 MIN)
 TOTAL WALL CLOCK TIME=          1.2 SECONDS, CPU UTILIZATION IS    79.18%
  $VIB   
          IVIB=   0 IATOM=   0 ICOORD=   0 E=     -190.2198710739
 -2.152545011E-04 3.154192979E-04 7.791383318E-05 1.531821354E-04-2.561823890E-05
  1.014457285E-04-8.236234506E-05 3.206447278E-04 1.324812343E-05 2.316844421E-04
  8.164291864E-05 5.066621932E-05-3.892708694E-04-2.569178714E-04-7.395563438E-05
  2.562209014E-04 2.998846983E-04 1.416991562E-04 1.168832296E-04-7.062534834E-04
 -2.880651657E-04-4.685341253E-04 6.837883114E-05 7.832557022E-05-3.178851636E-04
 -2.919654555E-04-7.983332158E-05 1.748122856E-04 3.381538541E-04-1.861943705E-04
 -4.309844091E-04-3.670413274E-04-1.882106313E-04 3.555493208E-04 2.358217465E-04
  5.556382137E-06-1.872843780E-04 2.911505715E-04 2.526039431E-04 5.027021255E-04
 -3.890144819E-04 1.693271635E-04 1.039262318E-04 2.623425026E-04-1.154735095E-05
 -2.225247249E-04 9.432384155E-05 8.810691198E-05 8.441331422E-05-1.056246676E-05
 -3.456585927E-04 4.177075011E-06-4.201630882E-04-1.849699623E-04 2.269300884E-04
 -9.737744219E-06-5.214114436E-05-1.088577822E-04 4.185262245E-04-5.898711190E-05
 -7.174824760E-05 1.147057211E-04-2.223393328E-04-5.065725275E-05-7.958633380E-05
  1.621418299E-04-2.122222730E-04-9.849455401E-06-4.099371955E-04-9.896902529E-05
  3.354341212E-04 2.009343959E-04 1.580046982E-04-2.021726525E-04-1.366602252E-04
  1.236764133E-05-3.413440288E-05 1.243489259E-04-6.670569026E-04 3.073565111E-04
 -5.524900916E-04 1.967405450E-04-2.613261663E-04-1.420698603E-04-1.742371299E-04
 -2.992641025E-04 2.006374970E-04-2.965232438E-04-1.800849154E-04-3.248126200E-04
  1.298409315E-04-7.523635822E-05-7.749227008E-05-7.518921012E-05 1.174230357E-04
 -7.675961972E-05 1.625768573E-04-8.212822471E-05 1.003087097E-04-5.440413248E-05
  4.101910675E-05 1.215198931E-04 2.230126343E-04-3.030773804E-05-4.112932972E-04
 -5.300450678E-04 1.554168427E-04 4.746282532E-04 4.529693020E-04-2.068977229E-04
 -2.235344410E-04-3.515858552E-04 4.100823424E-04 6.854569899E-04-4.046041183E-04
 -5.831662704E-04 1.836509381E-04 1.673560008E-04 3.865370621E-04 7.819247537E-04
  3.359465087E-04-2.602790142E-04-4.913252570E-04 4.491306265E-04 3.391427897E-04
  5.018340604E-06 7.797647333E-04-1.430930663E-04 1.267277022E-04 1.320091287E-04
 -8.606166214E-06 3.920862354E-04
 -6.808663273E-02 1.288847847E-01-1.804571083E-01
 ......END OF GEOMETRY SEARCH......
 CPU     0: STEP CPU TIME=     0.02 TOTAL CPU TIME=          1.0 (      0.0 MIN)
 TOTAL WALL CLOCK TIME=          1.2 SECONDS, CPU UTILIZATION IS    79.36%
                580000  WORDS OF DYNAMIC MEMORY USED
 EXECUTION OF GAMESS TERMINATED NORMALLY 21:10:37 27-MAY-2023    
 DDI: 263640 bytes (0.3 MB / 0 MWords) used by master data server.

 ----------------------------------------
 CPU timing information for all processes
 ========================================
 0: 0.562500 + 0.390625 = 0.953125
 1: 0.687500 + 0.125000 = 0.812500
 2: 0.375000 + 0.406250 = 0.781250
 3: 0.500000 + 0.468750 = 0.968750
 ----------------------------------------
           Disk usage (in bytes)       
 ========================================
 ----------------------------------------
            Local date and time          
 ========================================
27.05.2023 - 21:10:37,25                          
