          *******************************************************
          *                                                     *
          *          GAMESS VERSION = 30 SEP 2022 (R2)          *
          *                                                     *
          *              doi.org/10.1063/5.0005188              *
          *                                                     *
          *************** 64 BIT WINDOWS VERSION ****************

  GAMESS HAS BEEN MADE POSSIBLE WITH IMPORTANT CONTRIBUTIONS FROM
  THE FOLLOWING INDIVIDUALS (IN ALPHABETICAL ORDER):

     IVANA ADAMOVIC, CHRISTINE AIKENS, TOMOKO AKAMA,
     MELISA ALKAN, YURI ALEXEEV, YURIKO AOKI, POOJA ARORA,
     TOSHIO ASADA, ANDREY ASADCHEV, KIM K. BALDRIDGE,
     PRADIPTA BANDYOPADHYAY, TAYLOR A. BARNES, MARIA BARYSZ,
     ROB BELL, JONATHAN BENTZ, COLLEEN BERTONI,
     JERRY A. BOATZ, BRETT BODE, KURT BRORSEN, KURT R. BRORSEN,
     LAIMUTIS BYTAUTAS, CALEB CARLIN, LAURA CARRINGTON,
     GALINA CHABAN, BENOIT CHAMPAGNE, WEI CHEN, MAHITO CHIBA,
     DAN CHIPMAN, CHEOL HO CHOI, TANNER CULPITT,
     DIPAYAN DATTA, PAUL DAY, ALBERT DEFUSCO,
     NUWAN DESILVA, J. EMILIANO DEUSTUA,
     TIM DUDLEY, MICHEL DUPUIS, STEVEN T. ELBERT,
     DMITRI FEDOROV, KATHERINE FERRERAS, MICHAEL FILATOV,
     ALEX FINDLATER,GRAHAM FLETCHER, MARK FREITAG,
     CHRISTIAN FRIEDL, DAVID GARMER, 
     IGOR S. GERASIMOV, KURT GLAESEMANN,
     MARK S. GORDON, JEFFREY GOUR, FENG LONG GU,
     EMILIE B. GUIDEZ, ANASTASIA GUNINA, SHARON HAMMES-SCHIFFER,
     MASATAKE HARUTA, KIMIHIKO HIRAO, YASUHIRO IKABATA,
     TZVETELIN IORDANOV, STEPHAN IRLE, KAZUYA ISHIMURA,
     JOE IVANIC, FRANK JENSEN, JAN H. JENSEN, VISVALDAS KAIRYS,
     MUNEAKI KAMIYA, MICHIO KATOUDA, NAOAKI KAWAKAMI, DAN KEMP,
     BERNARD KIRTMAN, KAZUO KITAURA, MARIUSZ KLOBUKOWSKI,
     MASATO KOBAYASHI, KONSTANTIN KOMAROV, PRAKASHAN KORAMBATH,
     JACEK KORCHOWIEC, SHIRO KOSEKI, KAROL KOWALSKI,
     JIMMY KROMANN, STANISLAW KUCHARSKI, HENRY KURTZ,
     SAROM SOK LEANG, SEUNGHOON LEE, HUI LI, SHUHUA LI, WEI LI,
     JESSE LUTZ, ALEKSANDR O. LYKHIN, MARCIN MAKOWSKI,
     JOANI MATO, NIKITA MATSUNAGA, BENEDETTA MENNUCCI,
     GRANT MERRILL, NORIYUKI MINEZAWA, VLADIMIR MIRONOV,
     EISAKU MIYOSHI, JOHN A. MONTGOMERY JR., HIROTOSHI MORI,
     JONATHAN MULLIN, MONIKA MUSIAL, SHIGERU NAGASE,
     TAKESHI NAGATA, HIROMI NAKAI, TAKAHITO NAKAJIMA,
     YUYA NAKAJIMA, HARUYUKI NAKANO, HIROYA NAKATA, SEAN NEDD,
     HEATHER NETZLOFF, KIET A. NGUYEN, YOSHIO NISHIMOTO,
     BOSILJKA NJEGIC, RYAN OLSON, MIKE PAK, ROBERTO PEVERATI,
     BUU PHAM, PIOTR PIECUCH, ANNA POMOGAEVA, DAVID POOLE,
     SPENCER PRUITT, OLIVIER QUINET, LUKE ROSKOP,
     KLAUS RUEDENBERG, ANDREW SAND, TOSAPORN SATTASATHUCHANA,
     NOZOMI SAWADA, MICHAEL W. SCHMIDT, PATRICK E. SCHNEIDER,
     JUNJI SEINO, PRACHI SHARMA, JUN SHEN, JIM SHOEMAKER,
     YINAN SHU, DEJUN SI, JONATHAN SKONE, LYUDMILA SLIPCHENKO,
     TONY SMITH, JIE SONG, MARK SPACKMAN, CASPER STEINMANN,
     WALT STEVENS, PEIFENG SU, SHUJUN SU, CHET SWALINA,
     CHINAMI TAKASHIMA, TETSUYA TAKETSUGU, ZHEN TAO,
     NANDUN THELLAMUREGE, SEIKEN TOKURA, JACOPO TOMASI,
     TSUGUKI TOUMA, TAKAO TSUNEDA, HIROAKI UMEDA,
     JORGE LUIS GALVEZ VALLEJO, YALI WANG, SIMON WEBB,
     AARON WEST, THERESA L. WINDUS, MARTA WLOCH,
     PENG XU, KIYOSHI YAGI, SUSUMU YANAGISAWA, YANG YANG,
     SOOHAENG YOO, TAKESHI YOSHIKAWA, FEDERICO ZAHARIEV,
     TOBY ZENG

  WHO ARE SUPPORTED BY THEIR INSTITUTION/UNIVERSITY/COMPANY/GROUP
  (IN ALPHABETICAL ORDER):

     EP ANALYTICS,
     FACULTES UNIVERSITAIRES NOTRE-DAME DE LA PAIX,
     INSTITUTE FOR MOLECULAR SCIENCE, IOWA STATE UNIVERSITY,
     JACKSON STATE UNIVERSITY, JOHANNES KEPLER UNIVERSITY LINZ,
     KYUNGPOOK NATIONAL UNIVERSITY
     KYUSHU UNIVERSITY, MICHIGAN STATE UNIVERSITY,
     MIE UNIVERSITY, THE MOLECULAR SCIENCES SOFTWARE INSTITUTE,
     MOSCOW STATE UNIVERSITY,
     N. COPERNICUS UNIVERSITY, NAGOYA UNIVERSITY,
     NANJING UNIVERSITY, NAT. INST. OF ADVANCED INDUSTRIAL
     SCIENCE AND TECHNOLOGY, NATIONAL INST. OF STANDARDS AND
     TECHNOLOGY, NESMEYANOV INSTITUTE OF ORGANOELEMENT COMPOUNDS
     OF RUSSIAN ACADEMY OF SCIENCES, OSAKA PREFECTURE UNIVERSITY,
     PENNSYLVANIA STATE UNIVERSITY, TOKYO INSTITUTE OF TECHNOLOGY,
     UNIVERSITY OF AARHUS, UNIVERSITY OF ALBERTA,
     UNIVERSITY OF CALIFORNIA AT SANTA BARBARA,
     UNIVERSITY OF COPENHAGEN, UNIVERSITY OF IOWA,
     UNIVERSITY OF MEMPHIS, UNIVERSITY OF MINNESOTA,
     UNIVERSITY OF NEBRASKA, UNIVERSITY OF NEW ENGLAND,
     UNIVERSITY OF NOTRE DAME, UNIVERSITY OF PISA,
     UNIVERSITY OF SILESIA, UNIVERSITY OF TOKYO,
     UNIVERSITY OF ZURICH, WASEDA UNIVERSITY,
     YALE UNIVERSITY

  GAMESS SOFTWARE MANAGEMENT TEAM FOR THIS RELEASE:
     MARK S. GORDON (TEAM LEAD),
     BRETT BODE (SENIOR ADVISOR),
     GIUSEPPE BARCA,
     COLLEEN BERTONI,
     KRISTOPHER KEIPERT (ADVISOR),
     SAROM S. LEANG (DEVELOPMENT LEAD),
     BUU PHAM,
     JACKSON HAYES (WEBSITE ADMINISTRATOR),
     PENG XU


 PARALLEL VERSION RUNNING ON        2 PROCESSORS IN        2 NODES.

 EXECUTION OF GAMESS BEGUN 21:10:41 27-MAY-2023    

            ECHO OF THE FIRST FEW INPUT CARDS -
 INPUT CARD>! (Energy/Geometry) PM3                                                         
 INPUT CARD> $CONTRL                                                                        
 INPUT CARD>COORD=UNIQUE                                                                    
 INPUT CARD>ICHARG=0                                                                        
 INPUT CARD>MAXIT=200                                                                       
 INPUT CARD>MULT=1                                                                          
 INPUT CARD>RUNTYP=OPTIMIZE                                                                 
 INPUT CARD>SCFTYP=RHF                                                                      
 INPUT CARD>UNITS=ANGS                                                                      
 INPUT CARD>! DFTTYP=PBE                                                                    
 INPUT CARD> $END                                                                           
 INPUT CARD> $DFT                                                                           
 INPUT CARD>METHOD=GRID                                                                     
 INPUT CARD> $END                                                                           
 INPUT CARD> $BASIS                                                                         
 INPUT CARD>! EXTFIL=.T.                                                                    
 INPUT CARD>! GBASIS=GEGSSBAS                                                               
 INPUT CARD>! NGAUSS=6                                                                      
 INPUT CARD>GBASIS=PM3                                                                      
 INPUT CARD>! NDFUNC=1                                                                      
 INPUT CARD>! NPFUNC=1                                                                      
 INPUT CARD> $END                                                                           
 INPUT CARD> $SCF                                                                           
 INPUT CARD>DAMP=.F.                                                                        
 INPUT CARD>DEM=.F.                                                                         
 INPUT CARD>DIIS=.F.                                                                        
 INPUT CARD>DIRSCF=.T.                                                                      
 INPUT CARD>EXTRAP=.T.                                                                      
 INPUT CARD>RSTRCT=.F.                                                                      
 INPUT CARD>SHIFT=.F.                                                                       
 INPUT CARD>SOSCF=.T.                                                                       
 INPUT CARD> $END                                                                           
 INPUT CARD> $STATPT                                                                        
 INPUT CARD>METHOD=QA                                                                       
 INPUT CARD>NSTEP=100                                                                       
 INPUT CARD>OPTTOL=0.001                                                                    
 INPUT CARD> $END                                                                           
 INPUT CARD> $GUESS                                                                         
 INPUT CARD>GUESS=HUCKEL                                                                    
 INPUT CARD> $END                                                                           
 INPUT CARD> $SYSTEM                                                                        
 INPUT CARD>MWORDS=10                                                                       
 INPUT CARD> $END                                                                           
 INPUT CARD> $DATA                                                                          
 INPUT CARD>C44 FULLERENE                                                                   
 INPUT CARD>C1                                                                              
 INPUT CARD>C	6.0	-3.0632	-1.4055	-0.7075                                                   
 INPUT CARD>C	6.0	-3.6112	-0.1711	-0.6607                                                   
 INPUT CARD>C	6.0	-3.034	0.8325	-1.3772                                                     
 INPUT CARD>C	6.0	-1.8492	-1.5981	-1.3696                                                   
     10000000 WORDS OF MEMORY AVAILABLE

     BASIS OPTIONS
     -------------
     GBASIS=PM3          IGAUSS=       0      POLAR=NONE    
     NDFUNC=       0     NFFUNC=       0     DIFFSP=       F
     NPFUNC=       0      DIFFS=       F     BASNAM=        


     RUN TITLE
     ---------
 C44 FULLERENE                                                                   

 THE POINT GROUP OF THE MOLECULE IS C1      
 THE ORDER OF THE PRINCIPAL AXIS IS     0

 ATOM      ATOMIC                      COORDINATES (BOHR)
           CHARGE         X                   Y                   Z
 C           6.0    -5.7886086456       -2.6560098757       -1.3369811363
 C           6.0    -6.8241784869       -0.3233321165       -1.2485419601
 C           6.0    -5.7334286467        1.5731968848       -2.6025306303
 C           6.0    -3.4944812965       -3.0199711010       -2.5881687128
 C           6.0     4.1577751182       -3.2471161647       -2.0405261215
 C           6.0     1.7440281141       -3.2801863695       -2.8338330912
 C           6.0     0.5708862209       -1.1567012771       -4.0011168338
 C           6.0    -2.1429492701       -1.0663723749       -3.9056856714
 C           6.0    -3.3799639016        1.2959740824       -3.7773732769
 C           6.0    -3.2650685616        4.6183013414       -1.2874703154
 C           6.0    -5.5253698155        3.5473936242       -1.0013658009
 C           6.0     4.3342755254        4.1101540233       -0.3669847868
 C           6.0     1.9258197541        4.6621429843       -1.0618370325
 C           6.0     0.7795119699        3.3268626014       -3.1150243182
 C           6.0    -1.8568447555        3.3803418468       -3.1582990433
 C           6.0     6.0541151469        2.5934599455       -1.4796554484
 C           6.0     5.8148758368       -1.3817676422       -2.3247409101
 C           6.0     4.7757155162        0.8932734744       -3.0685370589
 C           6.0     2.1720510503        1.1049227850       -3.8544740972
 C           6.0    -5.8679771371        2.7057096692        1.4086017512
 C           6.0    -6.9001454716        0.3569692391        1.3008873699
 C           6.0     0.4112043749        4.6848196962        1.1162611409
 C           6.0    -2.1047768051        4.6139549716        1.0179953896
 C           6.0    -5.7751915911       -1.5822675695        2.5700273433
 C           6.0    -3.3793969838       -1.2766988773        3.6900679362
 C           6.0    -2.1601457766        1.1094581274        3.8593873847
 C           6.0    -3.5513620487        3.0902689077        2.6227506984
 C           6.0    -5.5372750892       -3.6241164993        1.0287668277
 C           6.0    -3.2888791090       -4.6954021617        1.3203515476
 C           6.0     0.4200860871       -4.6910557919       -1.0826240184
 C           6.0    -2.0947612574       -4.6097975744       -0.9970194311
 C           6.0     1.7829564694        3.3223272590        2.8720055561
 C           6.0     0.5627603991        1.1771103178        3.9597318347
 C           6.0     2.1459728317       -1.0979307989        3.7785071124
 C           6.0     0.7740317646       -3.3461378065        3.0626789083
 C           6.0    -1.8606242075       -3.3905463672        3.1114338388
 C           6.0     1.9804328351       -4.7424563388        1.0756320322
 C           6.0     6.0321943254       -2.6104674794        1.5008203794
 C           6.0     4.3766053876       -4.1827195012        0.3633943074
 C           6.0     4.2004829255        3.2754620545        2.0786985865
 C           6.0     5.8613630961        1.4104914772        2.3570552245
 C           6.0     4.7755265436       -0.8641716942        3.0345219911
 C           6.0     7.4521344326        1.2218968237        0.2785456106
 C           6.0     7.4235995702       -1.2260542208       -0.2698528710

          INTERNUCLEAR DISTANCES (ANGS.)
          ------------------------------

                1 C          2 C          3 C          4 C          5 C     

   1 C       0.0000000    1.3513836 *  2.3362352 *  1.3961616 *  5.2858141  
   2 C       1.3513836 *  0.0000000    1.3615231 *  2.3756078 *  6.0284196  
   3 C       2.3362352 *  1.3615231 *  0.0000000    2.7040017 *  5.8302553  
   4 C       1.3961616 *  2.3756078 *  2.7040017 *  0.0000000    4.0615357  
   5 C       5.2858141    6.0284196    5.8302553    4.0615357    0.0000000  
   6 C       4.0774396    4.8693020    4.7189198    2.7785607 *  1.3446314 *
   7 C       3.7339341    4.1988191    3.7100108    2.4818024 *  2.4295819 *
   8 C       2.5054194 *  2.8754553 *  2.4569490 *  1.4374774 *  3.6637105  
   9 C       2.7687280 *  2.4180421 *  1.3996617 *  2.3697869 *  4.7471009  
  10 C       4.0745380    3.2227077    2.1879317 *  4.1019823    5.7368890  
  11 C       3.2904507    2.1644914 *  1.3496064 *  3.7333345    6.2838214  
  12 C       6.4636494    6.3709081    5.6200638    5.7254380    3.9938447  
  13 C       5.6288012    5.3300599    4.4457003    5.0403745    4.3795880  
  14 C       4.7947199    4.5713009    3.5795385    4.0587203    3.9523698  
  15 C       3.9320935    3.4310433    2.2823774 *  3.5090041    4.7728229  
  16 C       6.8553967    6.9885772    6.2891547    5.8906509    3.2630552  
  17 C       6.1992887    6.7358295    6.3096997    5.0039364    1.3288868 *
  18 C       5.9682337    6.2467587    5.5782805    4.8482685    2.2810844 *
  19 C       4.8457870    5.0136002    4.2427758    3.7689855    2.7072860 *
  20 C       3.1879388    2.1914474 *  2.2067308 *  3.9026984    6.4344195  
  21 C       2.1992334 *  1.3968847 *  2.2499127 *  3.2675155    6.4035276  
  22 C       5.2477699    4.8217498    4.1420797    4.9737308    4.9335018  
  23 C       4.4892486    3.8081187    3.1538934    4.5278691    5.5593980  
  24 C       2.1441683 *  2.1989059 *  3.2063974    3.0799579    5.8615249  
  25 C       3.0388794    3.2260416    3.8619125    3.4485348    5.1177546  
  26 C       3.9011074    3.7379933    3.9151889    4.1127531    5.1225026  
  27 C       3.8779872    3.2340873    3.1021924    4.2496574    5.8291077  
  28 C       1.3591887 *  2.2286740 *  3.3567054    2.2212981 *  5.3850562  
  29 C       2.2117574 *  3.2711781    4.1214776    2.2529452 *  4.3907584  
  30 C       3.4601071    4.4772245    4.7158191    2.3891065 *  2.1801112 *
  31 C       2.2185953 *  3.3802970    3.8903342    1.4019223 *  3.4310940  
  32 C       5.5698182    5.4057086    5.0069802    5.2356360    4.5191340  
  33 C       4.8235854    4.8483816    4.8170296    4.6420550    4.3797532  
  34 C       5.0633557    5.4568115    5.5484817    4.6145810    3.4509293  
  35 C       4.1969306    4.8918645    5.2557051    3.7515147    3.2406318  
  36 C       3.1643296    3.8544329    4.4991505    3.1436997    4.1930208  
  37 C       4.4442058    5.3562469    5.6232401    3.6032687    2.1616941 *
  38 C       6.4330756    7.0616182    6.9556202    5.4903274    2.1469148 *
  39 C       5.5134504    6.3269501    6.3532147    4.4907702    1.3699533 *
  40 C       6.4078793    6.3845407    5.8806383    5.8119131    4.0823500  
  41 C       6.8160039    7.0388420    6.6739964    6.0709354    3.5075408  
  42 C       6.1238790    6.5496305    6.4410951    5.4135415    2.9848672 *
  43 C       7.3509056    7.6416720    7.1445413    6.3949465    3.1840017  
  44 C       7.0550657    7.5724491    7.2244728    5.9822128    2.2379621 *

                6 C          7 C          8 C          9 C         10 C     

   1 C       4.0774396    3.7339341    2.5054194 *  2.7687280 *  4.0745380  
   2 C       4.8693020    4.1988191    2.8754553 *  2.4180421 *  3.2227077  
   3 C       4.7189198    3.7100108    2.4569490 *  1.3996617 *  2.1879317 *
   4 C       2.7785607 *  2.4818024 *  1.4374774 *  2.3697869 *  4.1019823  
   5 C       1.3446314 *  2.4295819 *  3.6637105    4.7471009    5.7368890  
   6 C       0.0000000    1.4246570 *  2.4341252 *  3.6695612    5.0165444  
   7 C       1.4246570 *  0.0000000    1.4377824 *  2.4636537 *  3.9397622  
   8 C       2.4341252 *  1.4377824 *  0.0000000    1.4127497 *  3.3647401  
   9 C       3.6695612    2.4636537 *  1.4127497 *  0.0000000    2.1978813 *
  10 C       5.0165444    3.9397622    3.3647401    2.1978813 *  0.0000000  
  11 C       5.3658138    4.3730458    3.3951032    2.2059694 *  1.3321884 *
  12 C       4.3447951    3.9283982    4.7706223    4.7052115    4.0597083  
  13 C       4.3073082    3.5234686    4.0112279    3.6223167    2.7495916 *
  14 C       3.5364903    2.4210093 *  2.8233696 *  2.4744033 *  2.4460585 *
  15 C       4.0103885    2.7592917 *  2.3909040 *  1.4048369 *  1.4016344 *
  16 C       3.9212844    3.7600371    4.9208323    5.1839070    5.0475883  
  17 C       2.3921486 *  2.9157771 *  4.2966404    5.1258000    5.7852930  
  18 C       2.7325220 *  2.5241639 *  3.8309272    4.3373081    4.7831957  
  19 C       2.3932677 *  1.4684241 *  2.5563355 *  2.9400221 *  3.6851262  
  20 C       5.5945781    4.8971698    3.9722177    3.1338689    2.2264434 *
  21 C       5.4236551    4.9136255    3.8073272    3.3073425    3.2651708  
  22 C       4.7573295    4.1104649    4.2604474    3.7345403    2.3246084 *
  23 C       5.0747891    4.2876792    3.9779986    3.1587343    1.3657969 *
  24 C       4.9816719    4.8394047    3.9385220    3.8998204    4.0862648  
  25 C       4.5158615    4.5758829    4.0739264    4.1795398    4.0832458  
  26 C       4.7126719    4.5638751    4.2673771    4.0936181    3.3477720  
  27 C       5.2492186    4.7006106    4.1627712    3.5185496    2.2267409 *
  28 C       4.3654827    4.3860304    3.4462533    3.8144932    4.6874869  
  29 C       3.5336300    3.9507332    3.4210594    4.1631045    5.1181693  
  30 C       1.3809507 *  2.4268419 *  2.7839530 *  4.0143102    5.2993464  
  31 C       2.3593268 *  2.8028492 *  2.4260641 *  3.5205305    4.9248122  
  32 C       4.6178499    4.3883640    4.7511312    4.5820789    3.5285984  
  33 C       4.3449097    4.3899983    4.5588819    4.5956843    3.8896220  
  34 C       3.6908678    4.2004442    4.6568400    5.1130158    4.9533593  
  35 C       3.1624306    3.9149143    4.1756147    4.8957103    5.2564756  
  36 C       3.6796619    4.1495961    3.9145333    4.4817136    4.8920845  
  37 C       2.2123178 *  3.3725592    3.9362180    4.9851799    5.8142909  
  38 C       3.2459800    4.1738178    5.2505347    6.0730631    6.4043295  
  39 C       2.2430682 *  3.4574857    4.4413471    5.4821947    6.2294413  
  40 C       4.5257392    4.4205213    5.1551619    5.1760765    4.3914943  
  41 C       4.2958056    4.5829920    5.5355531    5.8699677    5.4703816  
  42 C       3.7217642    4.3400532    5.1868192    5.7381013    5.6348879  
  43 C       4.1847895    4.4691146    5.6700941    6.1208750    6.0067191  
  44 C       3.4721039    4.1291705    5.4163466    6.1571384    6.4689546  

               11 C         12 C         13 C         14 C         15 C     

   1 C       3.2904507    6.4636494    5.6288012    4.7947199    3.9320935  
   2 C       2.1644914 *  6.3709081    5.3300599    4.5713009    3.4310433  
   3 C       1.3496064 *  5.6200638    4.4457003    3.5795385    2.2823774 *
   4 C       3.7333345    5.7254380    5.0403745    4.0587203    3.5090041  
   5 C       6.2838214    3.9938447    4.3795880    3.9523698    4.7728229  
   6 C       5.3658138    4.3447951    4.3073082    3.5364903    4.0103885  
   7 C       4.3730458    3.9283982    3.5234686    2.4210093 *  2.7592917 *
   8 C       3.3951032    4.7706223    4.0112279    2.8233696 *  2.3909040 *
   9 C       2.2059694 *  4.7052115    3.6223167    2.4744033 *  1.4048369 *
  10 C       1.3321884 *  4.0597083    2.7495916 *  2.4460585 *  1.4016344 *
  11 C       0.0000000    5.2367629    3.9870108    3.5208275    2.2537201 *
  12 C       5.2367629    0.0000000    1.3582621 *  2.4135130 *  3.6144794  
  13 C       3.9870108    1.3582621 *  0.0000000    1.4309889 *  2.3869776 *
  14 C       3.5208275    2.4135130 *  1.4309889 *  0.0000000    1.3955749 *
  15 C       2.2537201 *  3.6144794    2.3869776 *  1.3955749 *  0.0000000  
  16 C       6.1535652    1.3487528 *  2.4535139 *  2.9479376 *  4.2997178  
  17 C       6.5807425    3.1832635    3.8614909    3.6719958    4.7985553  
  18 C       5.7344336    2.2352070 *  2.7165472 *  2.4760836 *  3.7487427  
  19 C       4.5323090    2.6914899 *  2.3967271 *  1.4417500 *  2.4760855 *
  20 C       1.3629530 *  5.5301208    4.4486773    4.2676147    3.2362507  
  21 C       2.2054179 *  6.3298184    5.3448120    4.9442739    3.9051706  
  22 C       3.3892551    2.2401609 *  1.4039348 *  2.3596484 *  2.6521007 *
  23 C       2.1764456 *  3.4955104    2.4002569 *  2.7526161 *  2.3081294 *
  24 C       3.3102431    6.3331492    5.5874873    5.2754357    4.5149289  
  25 C       3.7376032    5.4219007    4.9072672    4.8729893    4.4559843  
  26 C       3.3840537    4.3970747    3.8718686    4.1734908    3.9064905  
  27 C       2.1971940 *  4.4952654    3.5908681    3.8061976    3.1916043  
  28 C       3.9441330    6.6771722    6.0040168    5.4324862    4.7372308  
  29 C       4.6836206    6.2276184    5.8072606    5.3071254    4.9450949  
  30 C       5.3764799    5.1112691    5.0132386    4.3812186    4.5718066  
  31 C       4.6828109    5.7426586    5.3480464    4.6053006    4.3819603  
  32 C       4.3786114    2.2213446 *  2.2004252 *  3.2123913    3.7274553  
  33 C       4.3410620    3.4109383    3.3139992    3.9145023    4.1456937  
  34 C       5.3777460    3.7079401    3.9831214    4.3946183    4.8556664  
  35 C       5.3892928    4.7341173    4.8056406    4.8121094    5.0443558  
  36 C       4.6879398    5.4671126    5.2010116    5.0442191    4.8832049  
  37 C       6.0189721    4.9071148    5.1037011    4.8533869    5.2554181  
  38 C       7.0552938    3.7989759    4.6229740    4.8542771    5.7928385  
  39 C       6.6866384    4.4054442    4.9150633    4.7752874    5.5110228  
  40 C       5.4005372    1.3693302 *  2.1792815 *  3.2911439    4.2376613  
  41 C       6.3831813    2.1844555 *  3.2513437    4.0798620    5.1270196  
  42 C       6.3027380    3.1974248    3.9401907    4.4698979    5.3011644  
  43 C       7.0095859    2.2748334 *  3.5170218    4.1150494    5.3738954  
  44 C       7.3133124    3.2632897    4.2835154    4.5202998    5.6917596  

               16 C         17 C         18 C         19 C         20 C     

   1 C       6.8553967    6.1992887    5.9682337    4.8457870    3.1879388  
   2 C       6.9885772    6.7358295    6.2467587    5.0136002    2.1914474 *
   3 C       6.2891547    6.3096997    5.5782805    4.2427758    2.2067308 *
   4 C       5.8906509    5.0039364    4.8482685    3.7689855    3.9026984  
   5 C       3.2630552    1.3288868 *  2.2810844 *  2.7072860 *  6.4344195  
   6 C       3.9212844    2.3921486 *  2.7325220 *  2.3932677 *  5.5945781  
   7 C       3.7600371    2.9157771 *  2.5241639 *  1.4684241 *  4.8971698  
   8 C       4.9208323    4.2966404    3.8309272    2.5563355 *  3.9722177  
   9 C       5.1839070    5.1258000    4.3373081    2.9400221 *  3.1338689  
  10 C       5.0475883    5.7852930    4.7831957    3.6851262    2.2264434 *
  11 C       6.1535652    6.5807425    5.7344336    4.5323090    1.3629530 *
  12 C       1.3487528 *  3.1832635    2.2352070 *  2.6914899 *  5.5301208  
  13 C       2.4535139 *  3.8614909    2.7165472 *  2.3967271 *  4.4486773  
  14 C       2.9479376 *  3.6719958    2.4760836 *  1.4417500 *  4.2676147  
  15 C       4.2997178    4.7985553    3.7487427    2.4760855 *  3.2362507  
  16 C       0.0000000    2.1543325 *  1.4050114 *  2.5337551 *  6.4916681  
  17 C       2.1543325 *  0.0000000    1.3808281 *  2.4704069 *  6.8412278  
  18 C       1.4050114 *  1.3808281 *  0.0000000    1.4435545 *  6.1852172  
  19 C       2.5337551 *  2.4704069 *  1.4435545 *  0.0000000    5.1551898  
  20 C       6.4916681    6.8412278    6.1852172    5.1551898    0.0000000  
  21 C       7.1104210    7.0569343    6.6031742    5.5359613    1.3588171 *
  22 C       3.4682315    4.6688803    3.7767583    3.3728336    3.4873728  
  23 C       4.6401386    5.5461076    4.6701022    3.9010638    2.2423414 *
  24 C       6.9756949    6.6585686    6.4647043    5.5916254    2.3513738 *
  25 C       6.0496630    5.8142980    5.7213185    5.1144594    2.7627764 *
  26 C       5.2434422    5.5006599    5.1888803    4.6816969    2.4990606 *
  27 C       5.5334268    6.0844614    5.4625285    4.6931041    1.3989458 *
  28 C       7.0860522    6.3753336    6.3402521    5.4390454    3.3601854  
  29 C       6.4433516    5.4775655    5.6879373    5.0270265    4.1477503  
  30 C       4.8777424    3.4130086    3.8922450    3.5239352    5.3038790  
  31 C       5.7610865    4.5750236    4.7854253    4.0656782    4.5380094  
  32 C       3.2496394    4.2791779    3.7473430    3.7535720    4.1349896  
  33 C       4.1582679    4.5406729    4.3388055    4.2220533    3.7492970  
  34 C       3.9793361    3.7713319    4.0218326    4.2040675    4.8588595  
  35 C       4.8439494    4.0402657    4.4770362    4.4151717    4.8348708  
  36 C       5.7854717    5.0894773    5.3072061    4.8786465    3.9643413  
  37 C       4.6417035    3.2431148    3.9864013    4.0486212    5.7284161  
  38 C       3.1735010    2.1293615 *  3.1187342    4.0086359    6.8972794  
  39 C       3.8206260    2.1908209 *  3.2493011    3.7645907    6.5561278  
  40 C       2.1536255 *  3.4976307    3.0167629    3.5112940    5.3482920  
  41 C       2.1270633 *  2.8847726 *  2.9407783 *  3.8264855    6.2647653  
  42 C       3.0841458    2.9017955 *  3.3608356    4.0340416    6.0026486  
  43 C       1.3927433 *  2.1323141 *  2.2744881 *  3.5488354    7.1174655  
  44 C       2.2406016 *  1.3834523 *  2.3269045 *  3.5836564    7.3884589  

               21 C         22 C         23 C         24 C         25 C     

   1 C       2.1992334 *  5.2477699    4.4892486    2.1441683 *  3.0388794  
   2 C       1.3968847 *  4.8217498    3.8081187    2.1989059 *  3.2260416  
   3 C       2.2499127 *  4.1420797    3.1538934    3.2063974    3.8619125  
   4 C       3.2675155    4.9737308    4.5278691    3.0799579    3.4485348  
   5 C       6.4035276    4.9335018    5.5593980    5.8615249    5.1177546  
   6 C       5.4236551    4.7573295    5.0747891    4.9816719    4.5158615  
   7 C       4.9136255    4.1104649    4.2876792    4.8394047    4.5758829  
   8 C       3.8073272    4.2604474    3.9779986    3.9385220    4.0739264  
   9 C       3.3073425    3.7345403    3.1587343    3.8998204    4.1795398  
  10 C       3.2651708    2.3246084 *  1.3657969 *  4.0862648    4.0832458  
  11 C       2.2054179 *  3.3892551    2.1764456 *  3.3102431    3.7376032  
  12 C       6.3298184    2.2401609 *  3.4955104    6.3331492    5.4219007  
  13 C       5.3448120    1.4039348 *  2.4002569 *  5.5874873    4.9072672  
  14 C       4.9442739    2.3596484 *  2.7526161 *  5.2754357    4.8729893  
  15 C       3.9051706    2.6521007 *  2.3081294 *  4.5149289    4.4559843  
  16 C       7.1104210    3.4682315    4.6401386    6.9756949    6.0496630  
  17 C       7.0569343    4.6688803    5.5461076    6.6585686    5.8142980  
  18 C       6.6031742    3.7767583    4.6701022    6.4647043    5.7213185  
  19 C       5.5359613    3.3728336    3.9010638    5.5916254    5.1144594  
  20 C       1.3588171 *  3.4873728    2.2423414 *  2.3513738 *  2.7627764 *
  21 C       0.0000000    4.4970793    3.3965396    1.3632737 *  2.4118367 *
  22 C       4.4970793    0.0000000    1.3329427 *  4.7230756    3.9787952  
  23 C       3.3965396    1.3329427 *  0.0000000    3.8984931    3.4887365  
  24 C       1.3632737 *  4.7230756    3.8984931    0.0000000    1.4088140 *
  25 C       2.4118367 *  3.9787952    3.4887365    1.4088140 *  0.0000000  
  26 C       2.8780510 *  2.7455985 *  2.3876435 *  2.4807293 *  1.4208175 *
  27 C       2.3920100 *  2.3967720 *  1.3990177 *  2.7385009 *  2.3806593 *
  28 C       2.2313786 *  5.4077276    4.7226804    1.3596082 *  2.1977956 *
  29 C       3.2863603    5.3371096    4.9685671    2.2095952 *  2.2017387 *
  30 C       4.8715781    5.0961230    5.2217424    4.1461263    3.6994181  
  31 C       3.8539535    5.2154365    4.9961170    3.1500641    3.1184943  
  32 C       4.9261263    1.3820270 *  2.3795404 *  4.7705804    3.6841592  
  33 C       4.2147581    2.3908226 *  2.7791364 *  3.7311717    2.4613571 *
  34 C       5.0226585    3.4916548    4.0410206    4.2479405    2.9258043 *
  35 C       4.6044475    4.3770497    4.6081388    3.5986493    2.4779492 *
  36 C       3.4586794    4.5630134    4.3801730    2.2997504 *  1.4110131 *
  37 C       5.4203756    5.0573861    5.4026559    4.5017317    3.6499625  
  38 C       7.0221455    4.8777580    5.7637994    6.2973151    5.1618466  
  39 C       6.4519007    5.1557309    5.7924560    5.6671539    4.7232526  
  40 C       6.0877592    2.1991888 *  3.4568260    5.8772757    4.7559247  
  41 C       6.7990834    3.4280323    4.5985060    6.3591908    5.1411840  
  42 C       6.2795748    3.8712612    4.7747750    5.6015123    4.3348208  
  43 C       7.6278881    4.1757517    5.3806527    7.2571867    6.1531173  
  44 C       7.6711148    4.9083416    5.9530492    7.1468301    6.0887189  

               26 C         27 C         28 C         29 C         30 C     

   1 C       3.9011074    3.8779872    1.3591887 *  2.2117574 *  3.4601071  
   2 C       3.7379933    3.2340873    2.2286740 *  3.2711781    4.4772245  
   3 C       3.9151889    3.1021924    3.3567054    4.1214776    4.7158191  
   4 C       4.1127531    4.2496574    2.2212981 *  2.2529452 *  2.3891065 *
   5 C       5.1225026    5.8291077    5.3850562    4.3907584    2.1801112 *
   6 C       4.7126719    5.2492186    4.3654827    3.5336300    1.3809507 *
   7 C       4.5638751    4.7006106    4.3860304    3.9507332    2.4268419 *
   8 C       4.2673771    4.1627712    3.4462533    3.4210594    2.7839530 *
   9 C       4.0936181    3.5185496    3.8144932    4.1631045    4.0143102  
  10 C       3.3477720    2.2267409 *  4.6874869    5.1181693    5.2993464  
  11 C       3.3840537    2.1971940 *  3.9441330    4.6836206    5.3764799  
  12 C       4.3970747    4.4952654    6.6771722    6.2276184    5.1112691  
  13 C       3.8718686    3.5908681    6.0040168    5.8072606    5.0132386  
  14 C       4.1734908    3.8061976    5.4324862    5.3071254    4.3812186  
  15 C       3.9064905    3.1916043    4.7372308    4.9450949    4.5718066  
  16 C       5.2434422    5.5334268    7.0860522    6.4433516    4.8777424  
  17 C       5.5006599    6.0844614    6.3753336    5.4775655    3.4130086  
  18 C       5.1888803    5.4625285    6.3402521    5.6879373    3.8922450  
  19 C       4.6816969    4.6931041    5.4390454    5.0270265    3.5239352  
  20 C       2.4990606 *  1.3989458 *  3.3601854    4.1477503    5.3038790  
  21 C       2.8780510 *  2.3920100 *  2.2313786 *  3.2863603    4.8715781  
  22 C       2.7455985 *  2.3967720 *  5.4077276    5.3371096    5.0961230  
  23 C       2.3876435 *  1.3990177 *  4.7226804    4.9685671    5.2217424  
  24 C       2.4807293 *  2.7385009 *  1.3596082 *  2.2095952 *  4.1461263  
  25 C       1.4208175 *  2.3806593 *  2.1977956 *  2.2017387 *  3.6994181  
  26 C       0.0000000    1.4383856 *  3.4222733    3.4055812    4.2573957  
  27 C       1.4383856 *  0.0000000    3.8000530    4.1795562    5.0216444  
  28 C       3.4222733    3.8000530    0.0000000    1.3269545 *  3.3919594  
  29 C       3.4055812    4.1795562    1.3269545 *  0.0000000    2.3386242 *
  30 C       4.2573957    5.0216444    3.3919594    2.3386242 *  0.0000000  
  31 C       3.9705523    4.5679813    2.1771177 *  1.3802758 *  1.3322649 *
  32 C       2.4491114 *  2.8285469 *  5.4285539    5.0871285    4.7834468  
  33 C       1.4423225 *  2.5030530 *  4.3909841    3.9701647    4.0949253  
  34 C       2.5610082 *  3.7915251    4.5205177    3.6861267    3.3266621  
  35 C       2.8544430 *  4.1102427    3.5120256    2.4458904 *  2.3137587 *
  36 C       2.4191671 *  3.5537068    2.2394778 *  1.3951160 *  2.6183894 *
  37 C       4.0694587    5.1399952    4.0220539    2.7915166 *  1.4095789 *
  38 C       4.9220631    5.9306034    6.1508278    5.0552891    3.4497645  
  39 C       4.8198209    5.8174301    5.2663050    4.0968800    2.2453222 *
  40 C       3.6784489    4.1133581    6.3397659    5.8016825    4.9570880  
  41 C       4.3215424    5.0616472    6.6314288    5.8469566    4.6935298  
  42 C       3.8407905    4.8829106    5.7481957    4.8108978    3.7629598  
  43 C       5.4284147    6.0350118    7.3472109    6.5127330    4.9149570  
  44 C       5.6588182    6.4256933    7.0087801    6.0178023    4.1571928  

               31 C         32 C         33 C         34 C         35 C     

   1 C       2.2185953 *  5.5698182    4.8235854    5.0633557    4.1969306  
   2 C       3.3802970    5.4057086    4.8483816    5.4568115    4.8918645  
   3 C       3.8903342    5.0069802    4.8170296    5.5484817    5.2557051  
   4 C       1.4019223 *  5.2356360    4.6420550    4.6145810    3.7515147  
   5 C       3.4310940    4.5191340    4.3797532    3.4509293    3.2406318  
   6 C       2.3593268 *  4.6178499    4.3449097    3.6908678    3.1624306  
   7 C       2.8028492 *  4.3883640    4.3899983    4.2004442    3.9149143  
   8 C       2.4260641 *  4.7511312    4.5588819    4.6568400    4.1756147  
   9 C       3.5205305    4.5820789    4.5956843    5.1130158    4.8957103  
  10 C       4.9248122    3.5285984    3.8896220    4.9533593    5.2564756  
  11 C       4.6828109    4.3786114    4.3410620    5.3777460    5.3892928  
  12 C       5.7426586    2.2213446 *  3.4109383    3.7079401    4.7341173  
  13 C       5.3480464    2.2004252 *  3.3139992    3.9831214    4.8056406  
  14 C       4.6053006    3.2123913    3.9145023    4.3946183    4.8121094  
  15 C       4.3819603    3.7274553    4.1456937    4.8556664    5.0443558  
  16 C       5.7610865    3.2496394    4.1582679    3.9793361    4.8439494  
  17 C       4.5750236    4.2791779    4.5406729    3.7713319    4.0402657  
  18 C       4.7854253    3.7473430    4.3388055    4.0218326    4.4770362  
  19 C       4.0656782    3.7535720    4.2220533    4.2040675    4.4151717  
  20 C       4.5380094    4.1349896    3.7492970    4.8588595    4.8348708  
  21 C       3.8539535    4.9261263    4.2147581    5.0226585    4.6044475  
  22 C       5.2154365    1.3820270 *  2.3908226 *  3.4916548    4.3770497  
  23 C       4.9961170    2.3795404 *  2.7791364 *  4.0410206    4.6081388  
  24 C       3.1500641    4.7705804    3.7311717    4.2479405    3.5986493  
  25 C       3.1184943    3.6841592    2.4613571 *  2.9258043 *  2.4779492 *
  26 C       3.9705523    2.4491114 *  1.4423225 *  2.5610082 *  2.8544430 *
  27 C       4.5679813    2.8285469 *  2.5030530 *  3.7915251    4.1102427  
  28 C       2.1771177 *  5.4285539    4.3909841    4.5205177    3.5120256  
  29 C       1.3802758 *  5.0871285    3.9701647    3.6861267    2.4458904 *
  30 C       1.3322649 *  4.7834468    4.0949253    3.3266621    2.3137587 *
  31 C       0.0000000    5.1011329    4.2703033    3.8569249    2.7142182 *
  32 C       5.1011329    0.0000000    1.4272081 *  2.3954965 *  3.5703865  
  33 C       4.2703033    1.4272081 *  0.0000000    1.4698574 *  2.4427772 *
  34 C       3.8569249    2.3954965 *  1.4698574 *  0.0000000    1.4442824 *
  35 C       2.7142182 *  3.5703865    2.4427772 *  1.4442824 *  0.0000000  
  36 C       2.2711990 *  4.0438172    2.7728024 *  2.4681392 *  1.3946367 *
  37 C       2.4204112 *  4.3735368    3.5643573    2.4026922 *  1.4349843 *
  38 C       4.6218697    3.9292693    3.7533069    2.5144742 *  2.9286452 *
  39 C       3.5066412    4.4066796    3.9673062    2.7062974 *  2.4229467 *
  40 C       5.5819411    1.3466460 *  2.4350430 *  2.7105513 *  3.9795526  
  41 C       5.5700427    2.3990874 *  2.9319586 *  2.4886432 *  3.7044058  
  42 C       4.6580794    2.7245517 *  2.5251374 *  1.4514040 *  2.4917961 *
  43 C       5.9583324    3.4812231    4.1335692    3.5807232    4.5279578  
  44 C       5.3595411    4.1793581    4.4506198    3.5204798    4.0927430  

               36 C         37 C         38 C         39 C         40 C     

   1 C       3.1643296    4.4442058    6.4330756    5.5134504    6.4078793  
   2 C       3.8544329    5.3562469    7.0616182    6.3269501    6.3845407  
   3 C       4.4991505    5.6232401    6.9556202    6.3532147    5.8806383  
   4 C       3.1436997    3.6032687    5.4903274    4.4907702    5.8119131  
   5 C       4.1930208    2.1616941 *  2.1469148 *  1.3699533 *  4.0823500  
   6 C       3.6796619    2.2123178 *  3.2459800    2.2430682 *  4.5257392  
   7 C       4.1495961    3.3725592    4.1738178    3.4574857    4.4205213  
   8 C       3.9145333    3.9362180    5.2505347    4.4413471    5.1551619  
   9 C       4.4817136    4.9851799    6.0730631    5.4821947    5.1760765  
  10 C       4.8920845    5.8142909    6.4043295    6.2294413    4.3914943  
  11 C       4.6879398    6.0189721    7.0552938    6.6866384    5.4005372  
  12 C       5.4671126    4.9071148    3.7989759    4.4054442    1.3693302 *
  13 C       5.2010116    5.1037011    4.6229740    4.9150633    2.1792815 *
  14 C       5.0442191    4.8533869    4.8542771    4.7752874    3.2911439  
  15 C       4.8832049    5.2554181    5.7928385    5.5110228    4.2376613  
  16 C       5.7854717    4.6417035    3.1735010    3.8206260    2.1536255 *
  17 C       5.0894773    3.2431148    2.1293615 *  2.1908209 *  3.4976307  
  18 C       5.3072061    3.9864013    3.1187342    3.2493011    3.0167629  
  19 C       4.8786465    4.0486212    4.0086359    3.7645907    3.5112940  
  20 C       3.9643413    5.7284161    6.8972794    6.5561278    5.3482920  
  21 C       3.4586794    5.4203756    7.0221455    6.4519007    6.0877592  
  22 C       4.5630134    5.0573861    4.8777580    5.1557309    2.1991888 *
  23 C       4.3801730    5.4026559    5.7637994    5.7924560    3.4568260  
  24 C       2.2997504 *  4.5017317    6.2973151    5.6671539    5.8772757  
  25 C       1.4110131 *  3.6499625    5.1618466    4.7232526    4.7559247  
  26 C       2.4191671 *  4.0694587    4.9220631    4.8198209    3.6784489  
  27 C       3.5537068    5.1399952    5.9306034    5.8174301    4.1133581  
  28 C       2.2394778 *  4.0220539    6.1508278    5.2663050    6.3397659  
  29 C       1.3951160 *  2.7915166 *  5.0552891    4.0968800    5.8016825  
  30 C       2.6183894 *  1.4095789 *  3.4497645    2.2453222 *  4.9570880  
  31 C       2.2711990 *  2.4204112 *  4.6218697    3.5066412    5.5819411  
  32 C       4.0438172    4.3735368    3.9292693    4.4066796    1.3466460 *
  33 C       2.7728024 *  3.5643573    3.7533069    3.9673062    2.4350430 *
  34 C       2.4681392 *  2.4026922 *  2.5144742 *  2.7062974 *  2.7105513 *
  35 C       1.3946367 *  1.4349843 *  2.9286452 *  2.4229467 *  3.9795526  
  36 C       0.0000000    2.4091150 *  4.2827143    3.6310311    4.7988888  
  37 C       2.4091150 *  0.0000000    2.4332335 *  1.3555855 *  4.4344226  
  38 C       4.2827143    2.4332335 *  0.0000000    1.3498366 *  3.2763413  
  39 C       3.6310311    1.3555855 *  1.3498366 *  0.0000000    4.0508081  
  40 C       4.7988888    4.4344226    3.2763413    4.0508081    0.0000000  
  41 C       4.8282354    3.9088412    2.1773848 *  3.2389451    1.3297120 *
  42 C       3.7577912    2.7339004 *  1.3981704 *  2.2641627 *  2.2687354 *
  43 C       5.7000855    4.3038859    2.2573737 *  3.2909531    2.2470363 *
  44 C       5.3526727    3.5023171    1.3988601 *  2.2715851 *  3.1824556  

               41 C         42 C         43 C         44 C     

   1 C       6.8160039    6.1238790    7.3509056    7.0550657  
   2 C       7.0388420    6.5496305    7.6416720    7.5724491  
   3 C       6.6739964    6.4410951    7.1445413    7.2244728  
   4 C       6.0709354    5.4135415    6.3949465    5.9822128  
   5 C       3.5075408    2.9848672 *  3.1840017    2.2379621 *
   6 C       4.2958056    3.7217642    4.1847895    3.4721039  
   7 C       4.5829920    4.3400532    4.4691146    4.1291705  
   8 C       5.5355531    5.1868192    5.6700941    5.4163466  
   9 C       5.8699677    5.7381013    6.1208750    6.1571384  
  10 C       5.4703816    5.6348879    6.0067191    6.4689546  
  11 C       6.3831813    6.3027380    7.0095859    7.3133124  
  12 C       2.1844555 *  3.1974248    2.2748334 *  3.2632897  
  13 C       3.2513437    3.9401907    3.5170218    4.2835154  
  14 C       4.0798620    4.4698979    4.1150494    4.5202998  
  15 C       5.1270196    5.3011644    5.3738954    5.6917596  
  16 C       2.1270633 *  3.0841458    1.3927433 *  2.2406016 *
  17 C       2.8847726 *  2.9017955 *  2.1323141 *  1.3834523 *
  18 C       2.9407783 *  3.3608356    2.2744881 *  2.3269045 *
  19 C       3.8264855    4.0340416    3.5488354    3.5836564  
  20 C       6.2647653    6.0026486    7.1174655    7.3884589  
  21 C       6.7990834    6.2795748    7.6278881    7.6711148  
  22 C       3.4280323    3.8712612    4.1757517    4.9083416  
  23 C       4.5985060    4.7747750    5.3806527    5.9530492  
  24 C       6.3591908    5.6015123    7.2571867    7.1468301  
  25 C       5.1411840    4.3348208    6.1531173    6.0887189  
  26 C       4.3215424    3.8407905    5.4284147    5.6588182  
  27 C       5.0616472    4.8829106    6.0350118    6.4256933  
  28 C       6.6314288    5.7481957    7.3472109    7.0087801  
  29 C       5.8469566    4.8108978    6.5127330    6.0178023  
  30 C       4.6935298    3.7629598    4.9149570    4.1571928  
  31 C       5.5700427    4.6580794    5.9583324    5.3595411  
  32 C       2.3990874 *  2.7245517 *  3.4812231    4.1793581  
  33 C       2.9319586 *  2.5251374 *  4.1335692    4.4506198  
  34 C       2.4886432 *  1.4514040 *  3.5807232    3.5204798  
  35 C       3.7044058    2.4917961 *  4.5279578    4.0927430  
  36 C       4.8282354    3.7577912    5.7000855    5.3526727  
  37 C       3.9088412    2.7339004 *  4.3038859    3.5023171  
  38 C       2.1773848 *  1.3981704 *  2.2573737 *  1.3988601 *
  39 C       3.2389451    2.2641627 *  3.2909531    2.2715851 *
  40 C       1.3297120 *  2.2687354 *  2.2470363 *  3.1824556  
  41 C       0.0000000    1.3811521 *  1.3886566 *  2.1359761 *
  42 C       1.3811521 *  0.0000000    2.3133773 *  2.2489811 *
  43 C       1.3886566 *  2.3133773 *  0.0000000    1.3275938 *
  44 C       2.1359761 *  2.2489811 *  1.3275938 *  0.0000000  

  * ... LESS THAN  3.000


 TOTAL NUMBER OF BASIS SET SHELLS             =   44
 NUMBER OF CARTESIAN GAUSSIAN BASIS FUNCTIONS =  176
 NUMBER OF ELECTRONS                          =  176
 CHARGE OF MOLECULE                           =    0
 SPIN MULTIPLICITY                            =    1
 NUMBER OF OCCUPIED ORBITALS (ALPHA)          =   88
 NUMBER OF OCCUPIED ORBITALS (BETA )          =   88
 TOTAL NUMBER OF ATOMS                        =   44
 THE NUCLEAR REPULSION ENERGY IS     5257.4480996204

 THE PARAMETERS USED IN THIS CALCULATION ARE DESCRIBED IN:

  C: (PM3): J. J. P. STEWART, J. COMP. CHEM. 10, 209 (1989).                    

 THERE ARE   44 HEAVY AND    0 LIGHT ATOMS,
 YIELDING A TOTAL OF     94600 MOPAC 2E- INTEGRALS.

     $CONTRL OPTIONS
     ---------------
 SCFTYP=RHF          RUNTYP=OPTIMIZE     EXETYP=RUN     
 MPLEVL=       0     CITYP =NONE         CCTYP =NONE         VBTYP =NONE    
 DFTTYP=NONE         TDDFT =NONE    
 MULT  =       1     ICHARG=       0     NZVAR =       0     COORD =UNIQUE  
 PP    =NONE         RELWFN=NONE         LOCAL =NONE         NUMGRD=       F
 ISPHER=      -1     NOSYM =       0     MAXIT =     200     UNITS =ANGS    
 PLTORB=       F     MOLPLT=       F     AIMPAC=       F     FRIEND=        
 NPRINT=       7     IREST =       0     GEOM  =INPUT   
 NORMF =       0     NORMP =       0     ITOL  =      20     ICUT  =       9
 INTTYP=BEST         GRDTYP=BEST         QMTTOL= 1.0E-06

     $SYSTEM OPTIONS
     ---------------
  REPLICATED MEMORY=    10000000 WORDS (ON EVERY NODE).
 DISTRIBUTED MEMDDI=           0 MILLION WORDS IN AGGREGATE,
 MEMDDI DISTRIBUTED OVER   2 PROCESSORS IS           0 WORDS/PROCESSOR.
 TOTAL MEMORY REQUESTED ON EACH PROCESSOR=    10000000 WORDS.
 TIMLIM=      525600.00 MINUTES, OR     365.0 DAYS.
 PARALL= T  BALTYP=  DLB     KDIAG=    0  COREFL= F
 MXSEQ2=     300 MXSEQ3=     150  mem10=         0  mem22=         0

          ----------------
          PROPERTIES INPUT
          ----------------

     MOMENTS            FIELD           POTENTIAL          DENSITY
 IEMOM =       1   IEFLD =       0   IEPOT =       0   IEDEN =       0
 WHERE =COMASS     WHERE =NUCLEI     WHERE =NUCLEI     WHERE =NUCLEI  
 OUTPUT=BOTH       OUTPUT=BOTH       OUTPUT=BOTH       OUTPUT=BOTH    
 IEMINT=       0   IEFINT=       0                     IEDINT=       0
                                                       MORB  =       0
          EXTRAPOLATION IN EFFECT
          SOSCF IN EFFECT
 ORBITAL PRINTING OPTION: NPREO=     1   176     2     1

     -------------------------------
     INTEGRAL TRANSFORMATION OPTIONS
     -------------------------------
     NWORD  =            0
     CUTTRF = 1.0E-09     MPTRAN =       0
     DIRTRF =       T     AOINTS =DUP     

          ----------------------
          INTEGRAL INPUT OPTIONS
          ----------------------
 NOPK  =       1 NORDER=       0 SCHWRZ=       T

     ------------------------------------------
     THE POINT GROUP IS C1 , NAXIS= 0, ORDER= 1
     ------------------------------------------

     DIMENSIONS OF THE SYMMETRY SUBSPACES ARE
 A   =  176

 ..... DONE SETTING UP THE RUN .....
 CPU     0: STEP CPU TIME=     0.00 TOTAL CPU TIME=          0.0 (      0.0 MIN)
 TOTAL WALL CLOCK TIME=          0.0 SECONDS, CPU UTILIZATION IS     0.00%


          -----------------------------
          STATIONARY POINT LOCATION RUN
          -----------------------------

 OBTAINING INITIAL HESSIAN, HESS=GUESS   
 CARTESIAN COORDINATE OPTIMIZATION USING BADGER'S RULE FORCE CONSTANT GUESS

          PARAMETERS CONTROLLING GEOMETRY SEARCH ARE
          METHOD =QA                  UPHESS =BFGS    
          NNEG   =         0          NFRZ   =         0
          NSTEP  =       100          IFOLOW =         1
          HESS   =GUESS               RESTAR =         F
          IHREP  =         0          HSSEND =         F
          NPRT   =         0          NPUN   =         0
          OPTTOL = 1.000E-03          RMIN   = 1.500E-03
          RMAX   = 1.000E-01          RLIM   = 7.000E-02
          DXMAX  = 3.000E-01          PURIFY =         F
          MOVIE  =         F          TRUPD  =         T
          TRMAX  = 5.000E-01          TRMIN  = 5.000E-02
          ITBMAT =         5          STPT   =         F
          STSTEP = 1.000E-02          PROJCT=          T

 BEGINNING GEOMETRY SEARCH POINT NSERCH=   0 ...

 COORDINATES OF ALL ATOMS ARE (ANGS)
   ATOM   CHARGE       X              Y              Z
 ------------------------------------------------------------
 C           6.0  -3.0632000000  -1.4055000000  -0.7075000000
 C           6.0  -3.6112000000  -0.1711000000  -0.6607000000
 C           6.0  -3.0340000000   0.8325000000  -1.3772000000
 C           6.0  -1.8492000000  -1.5981000000  -1.3696000000
 C           6.0   2.2002000000  -1.7183000000  -1.0798000000
 C           6.0   0.9229000000  -1.7358000000  -1.4996000000
 C           6.0   0.3021000000  -0.6121000000  -2.1173000000
 C           6.0  -1.1340000000  -0.5643000000  -2.0668000000
 C           6.0  -1.7886000000   0.6858000000  -1.9989000000
 C           6.0  -1.7278000000   2.4439000000  -0.6813000000
 C           6.0  -2.9239000000   1.8772000000  -0.5299000000
 C           6.0   2.2936000000   2.1750000000  -0.1942000000
 C           6.0   1.0191000000   2.4671000000  -0.5619000000
 C           6.0   0.4125000000   1.7605000000  -1.6484000000
 C           6.0  -0.9826000000   1.7888000000  -1.6713000000
 C           6.0   3.2037000000   1.3724000000  -0.7830000000
 C           6.0   3.0771000000  -0.7312000000  -1.2302000000
 C           6.0   2.5272000000   0.4727000000  -1.6238000000
 C           6.0   1.1494000000   0.5847000000  -2.0397000000
 C           6.0  -3.1052000000   1.4318000000   0.7454000000
 C           6.0  -3.6514000000   0.1889000000   0.6884000000
 C           6.0   0.2176000000   2.4791000000   0.5907000000
 C           6.0  -1.1138000000   2.4416000000   0.5387000000
 C           6.0  -3.0561000000  -0.8373000000   1.3600000000
 C           6.0  -1.7883000000  -0.6756000000   1.9527000000
 C           6.0  -1.1431000000   0.5871000000   2.0423000000
 C           6.0  -1.8793000000   1.6353000000   1.3879000000
 C           6.0  -2.9302000000  -1.9178000000   0.5444000000
 C           6.0  -1.7404000000  -2.4847000000   0.6987000000
 C           6.0   0.2223000000  -2.4824000000  -0.5729000000
 C           6.0  -1.1085000000  -2.4394000000  -0.5276000000
 C           6.0   0.9435000000   1.7581000000   1.5198000000
 C           6.0   0.2978000000   0.6229000000   2.0954000000
 C           6.0   1.1356000000  -0.5810000000   1.9995000000
 C           6.0   0.4096000000  -1.7707000000   1.6207000000
 C           6.0  -0.9846000000  -1.7942000000   1.6465000000
 C           6.0   1.0480000000  -2.5096000000   0.5692000000
 C           6.0   3.1921000000  -1.3814000000   0.7942000000
 C           6.0   2.3160000000  -2.2134000000   0.1923000000
 C           6.0   2.2228000000   1.7333000000   1.1000000000
 C           6.0   3.1017000000   0.7464000000   1.2473000000
 C           6.0   2.5271000000  -0.4573000000   1.6058000000
 C           6.0   3.9435000000   0.6466000000   0.1474000000
 C           6.0   3.9284000000  -0.6488000000  -0.1428000000

          ********************
          1 ELECTRON INTEGRALS
          ********************

          **************************
          1 AND 2 ELECTRON INTEGRALS
          **************************

 MOPAC ONE- AND TWO-ELECTRON INTEGRALS REQUIRE    125752 WORDS.
 ...... END OF ONE- AND TWO-ELECTRON INTEGRALS......
 CPU     0: STEP CPU TIME=     0.00 TOTAL CPU TIME=          0.0 (      0.0 MIN)
 TOTAL WALL CLOCK TIME=          0.0 SECONDS, CPU UTILIZATION IS     0.00%
 ...... END OF ONE-ELECTRON INTEGRALS ......
 CPU     0: STEP CPU TIME=     0.00 TOTAL CPU TIME=          0.0 (      0.0 MIN)
 TOTAL WALL CLOCK TIME=          0.0 SECONDS, CPU UTILIZATION IS     0.00%

          -------------
          GUESS OPTIONS
          -------------
          GUESS =HUCKEL            NORB  =       0          NORDER=       0
          MIX   =       F          PRTMO =       F          PUNMO =       F
          TOLZ  = 1.0E-08          TOLE  = 1.0E-05
          SYMDEN=       F          PURIFY=       F

 INITIAL GUESS ORBITALS GENERATED BY HUCKEL   ROUTINE.

 SYMMETRIES FOR INITIAL GUESS ORBITALS FOLLOW.   BOTH SET(S).
    88 ORBITALS ARE OCCUPIED (    0 CORE ORBITALS).
     1=A        2=A        3=A        4=A        5=A        6=A        7=A   
     8=A        9=A       10=A       11=A       12=A       13=A       14=A   
    15=A       16=A       17=A       18=A       19=A       20=A       21=A   
    22=A       23=A       24=A       25=A       26=A       27=A       28=A   
    29=A       30=A       31=A       32=A       33=A       34=A       35=A   
    36=A       37=A       38=A       39=A       40=A       41=A       42=A   
    43=A       44=A       45=A       46=A       47=A       48=A       49=A   
    50=A       51=A       52=A       53=A       54=A       55=A       56=A   
    57=A       58=A       59=A       60=A       61=A       62=A       63=A   
    64=A       65=A       66=A       67=A       68=A       69=A       70=A   
    71=A       72=A       73=A       74=A       75=A       76=A       77=A   
    78=A       79=A       80=A       81=A       82=A       83=A       84=A   
    85=A       86=A       87=A       88=A       89=A       90=A       91=A   
    92=A       93=A       94=A       95=A       96=A       97=A       98=A   
 ...... END OF INITIAL ORBITAL SELECTION ......
 CPU     0: STEP CPU TIME=     0.00 TOTAL CPU TIME=          0.0 (      0.0 MIN)
 TOTAL WALL CLOCK TIME=          0.0 SECONDS, CPU UTILIZATION IS     0.00%

          --------------------------
               R-PM3 SCF CALCULATION
          --------------------------

     NUCLEAR ENERGY =      2118.7124654624
     MAXIT =  200     NPUNCH=    2
     EXTRAP=T  DAMP=F  SHIFT=F  RSTRCT=F  DIIS=F  DEM=F  SOSCF=T
     DENSITY MATRIX CONV=  2.00E-05
     SOSCF WILL OPTIMIZE    7744 ORBITAL ROTATIONS, SOGTOL=   0.250
     MEMORY REQUIRED FOR RHF ITERS=    345576 WORDS.

                                                                                   NONZERO     BLOCKS
 ITER EX DEM     TOTAL ENERGY        E CHANGE  DENSITY CHANGE     ORB. GRAD      INTEGRALS    SKIPPED
   1  0  0     -188.3098340635  -188.3098340635   0.173473531   0.000000000              0          0
          ---------------START SECOND ORDER SCF---------------
   2  1  0     -189.5658798528    -1.2560457893   0.160924646   0.061139889              0          0
   3  2  0     -189.6368708842    -0.0709910314   0.084524152   0.033406183              0          0
   4  3  0     -189.7413481112    -0.1044772271   0.105233659   0.032093536              0          0
   5  4  0     -189.7895035622    -0.0481554509   0.029761051   0.007796861              0          0
   6  5  0     -189.7947878294    -0.0052842672   0.010670831   0.003095587              0          0
   7  6  0     -189.7963492608    -0.0015614315   0.016495271   0.002499998              0          0
   8  7  0     -189.7972909484    -0.0009416876   0.007677472   0.001452324              0          0
   9  8  0     -189.7976088783    -0.0003179299   0.005245520   0.000833600              0          0
  10  9  0     -189.7977678951    -0.0001590168   0.003500083   0.000387728              0          0
  11 10  0     -189.7978191357    -0.0000512406   0.002188340   0.000332691              0          0
  12 11  0     -189.7978375978    -0.0000184620   0.001457925   0.000175898              0          0
  13 12  0     -189.7978447760    -0.0000071782   0.000530847   0.000074272              0          0
  14 13  0     -189.7978468221    -0.0000020461   0.000269818   0.000053703              0          0
  15 14  0     -189.7978475591    -0.0000007371   0.000214939   0.000048991              0          0
  16 15  0     -189.7978478917    -0.0000003326   0.000169005   0.000018983              0          0
  17 16  0     -189.7978480187    -0.0000001269   0.000069318   0.000010192              0          0
  18 17  0     -189.7978480536    -0.0000000349   0.000035155   0.000006277              0          0
  19 18  0     -189.7978480629    -0.0000000093   0.000025404   0.000004082              0          0
  20 19  0     -189.7978480657    -0.0000000028   0.000016573   0.000002378              0          0

          -----------------
          DENSITY CONVERGED
          -----------------
     TIME TO FORM FOCK OPERATORS=       0.0 SECONDS (       0.0 SEC/ITER)
     FOCK TIME ON FIRST ITERATION=       0.0, LAST ITERATION=       0.0
     TIME TO SOLVE SCF EQUATIONS=       0.1 SECONDS (       0.0 SEC/ITER)

 FINAL R-PM3 ENERGY IS     -189.7978480657 AFTER  20 ITERATIONS

 HEAT OF FORMATION IS      1278.93018 KCAL/MOL
 

          ------------
          EIGENVECTORS
          ------------

                      1          2          3          4          5
                   -1.9459    -1.8596    -1.7326    -1.6078    -1.5684
                     A          A          A          A          A   
    1  C  1  S    0.135732   0.211091   0.122901  -0.090487   0.130041
    2  C  1  X    0.023154   0.026409   0.037150  -0.015244  -0.020419
    3  C  1  Y    0.019580   0.036446  -0.018582   0.022975   0.051470
    4  C  1  Z    0.025042   0.042157   0.032753  -0.055279   0.034987
    5  C  2  S    0.137580   0.231152   0.003071   0.023883   0.219099
    6  C  2  X    0.034927   0.054587   0.001884   0.012008   0.035539
    7  C  2  Y    0.004964   0.009105  -0.047903   0.056866   0.013007
    8  C  2  Z    0.020390   0.036794   0.009624  -0.031329   0.043905
    9  C  3  S    0.131945   0.206036  -0.101720   0.175676   0.137451
   10  C  3  X    0.021413   0.024405  -0.027498   0.047796  -0.017258
   11  C  3  Y   -0.004017  -0.009133  -0.034912   0.029334  -0.021296
   12  C  3  Z    0.032854   0.056391  -0.023988   0.022331   0.056577
   13  C  4  S    0.121832   0.143788   0.139344  -0.006290  -0.030058
   14  C  4  X    0.003083  -0.018029   0.013460   0.028554  -0.056536
   15  C  4  Y    0.011240   0.017408  -0.018326   0.031147   0.016405
   16  C  4  Z    0.027762   0.038512   0.047695  -0.044407   0.004709
   17  C  5  S    0.183779  -0.138160   0.172922   0.234520  -0.039304
   18  C  5  X   -0.003332  -0.017805  -0.029548  -0.023867   0.080113
   19  C  5  Y    0.028977  -0.029746  -0.003004   0.018813   0.034554
   20  C  5  Z    0.036071  -0.030733   0.038898   0.029748   0.004826
   21  C  6  S    0.143323  -0.046107   0.174563   0.206010  -0.180158
   22  C  6  X    0.009831  -0.031954   0.000654   0.024819   0.026920
   23  C  6  Y    0.011694  -0.006353  -0.011683   0.018104   0.002909
   24  C  6  Z    0.031337  -0.013055   0.051717   0.032680  -0.039756
   25  C  7  S    0.111254   0.001168   0.055928   0.168550  -0.145263
   26  C  7  X    0.005426  -0.029121   0.004499   0.006804   0.003794
   27  C  7  Y    0.000541   0.001207  -0.038231  -0.000172   0.006871
   28  C  7  Z    0.022869  -0.002324   0.019981   0.026606  -0.028109
   29  C  8  S    0.105480   0.090698   0.034746   0.135344  -0.081626
   30  C  8  X    0.000410  -0.025046   0.006765   0.016334  -0.042193
   31  C  8  Y    0.004394   0.007090  -0.040284   0.030690   0.005642
   32  C  8  Z    0.021605   0.022762   0.015269   0.010248  -0.007762
   33  C  9  S    0.116825   0.141007  -0.090645   0.199832  -0.011564
   34  C  9  X    0.000947  -0.018309  -0.000828   0.007643  -0.050203
   35  C  9  Y    0.001905   0.002905  -0.041841   0.023534  -0.004228
   36  C  9  Z    0.029017   0.040440  -0.028016   0.040407   0.012111
   37  C 10  S    0.129556   0.149642  -0.218976   0.186513  -0.055538
   38  C 10  X    0.001983  -0.019811  -0.012402  -0.019819  -0.056407
   39  C 10  Y   -0.035293  -0.046717   0.048568  -0.057487  -0.004375
   40  C 10  Z    0.012668   0.014709  -0.025259  -0.009259  -0.006692
   41  C 11  S    0.137458   0.207299  -0.176459   0.197480   0.101956
   42  C 11  X    0.026777   0.030058  -0.052139   0.049075  -0.025129
   43  C 11  Y   -0.030875  -0.053082   0.015116  -0.028948  -0.055568
   44  C 11  Z    0.009673   0.015667  -0.011092  -0.014188   0.012321
   45  C 12  S    0.175619  -0.132593  -0.184177  -0.176820  -0.050300
   46  C 12  X   -0.008574  -0.012572   0.037242   0.013633   0.078934
   47  C 12  Y   -0.046804   0.044041   0.026177   0.031512  -0.028750
   48  C 12  Z    0.014359  -0.011472  -0.020171  -0.045953  -0.008593
   49  C 13  S    0.141254  -0.043297  -0.210715  -0.085749  -0.194330
   50  C 13  X    0.005126  -0.030556   0.010633  -0.039458   0.031314
   51  C 13  Y   -0.031777   0.014124   0.035514   0.011623   0.029408
   52  C 13  Z    0.018971  -0.009609  -0.034798  -0.053001  -0.031236
   53  C 14  S    0.117719   0.003667  -0.149261   0.075489  -0.166845
   54  C 14  X    0.001550  -0.031195   0.010834  -0.039551   0.009707
   55  C 14  Y   -0.011371   0.002430  -0.008914  -0.026369   0.005276
   56  C 14  Z    0.023344  -0.002456  -0.041626  -0.014843  -0.035783
   57  C 15  S    0.118783   0.101798  -0.171849   0.187958  -0.108791
   58  C 15  X   -0.004878  -0.033913   0.007425  -0.036342  -0.043484
   59  C 15  Y   -0.012974  -0.013575  -0.002094  -0.030123   0.000208
   60  C 15  Z    0.024146   0.022851  -0.045643   0.022307  -0.019625
   61  C 16  S    0.185592  -0.176930  -0.096236  -0.086710   0.128766
   62  C 16  X   -0.029152   0.019169   0.031434   0.019869   0.025129
   63  C 16  Y   -0.037991   0.041713  -0.011612  -0.020524  -0.061296
   64  C 16  Z    0.035444  -0.036088  -0.025444  -0.048151   0.031243
   65  C 17  S    0.197425  -0.187601   0.071850   0.144128   0.142988
   66  C 17  X   -0.021661   0.010787  -0.021311  -0.041865   0.034102
   67  C 17  Y    0.014870  -0.017923  -0.034330  -0.034910   0.035872
   68  C 17  Z    0.049400  -0.051452   0.018892   0.018300   0.057173
   69  C 18  S    0.170017  -0.146885  -0.027159   0.056370   0.067365
   70  C 18  X    0.003315  -0.017606   0.004282  -0.018744   0.060362
   71  C 18  Y   -0.010803   0.011537  -0.037864  -0.048485  -0.014990
   72  C 18  Z    0.046603  -0.046741  -0.011894  -0.011257   0.043665
   73  C 19  S    0.121403  -0.047410  -0.041902   0.110059  -0.102489
   74  C 19  X    0.005187  -0.027329   0.006627  -0.021291   0.038331
   75  C 19  Y   -0.004151   0.004301  -0.037848  -0.032005  -0.003723
   76  C 19  Z    0.026268  -0.014888  -0.014195   0.005538  -0.013557
   77  C 20  S    0.131313   0.204793  -0.122636   0.082074   0.133496
   78  C 20  X    0.023787   0.027963  -0.037924   0.016278  -0.016713
   79  C 20  Y   -0.020240  -0.037396  -0.015198   0.021025  -0.050778
   80  C 20  Z   -0.024795  -0.041662   0.032041  -0.050758  -0.036707
   81  C 21  S    0.134430   0.226450  -0.007993  -0.028708   0.216682
   82  C 21  X    0.035746   0.056403  -0.003038  -0.012418   0.038707
   83  C 21  Y   -0.005344  -0.009824  -0.046164   0.055258  -0.011245
   84  C 21  Z   -0.020640  -0.037061   0.009505  -0.027453  -0.044480
   85  C 22  S    0.137043   0.006596  -0.230826  -0.099353  -0.233679
   86  C 22  X    0.009055  -0.037135  -0.004029  -0.057111  -0.010665
   87  C 22  Y   -0.026949   0.001335   0.035555   0.027625   0.038335
   88  C 22  Z   -0.010068  -0.002415   0.022635  -0.024276   0.015456
   89  C 23  S    0.128372   0.107910  -0.223230   0.053125  -0.137686
   90  C 23  X    0.000407  -0.032218  -0.006680  -0.047861  -0.058409
   91  C 23  Y   -0.025580  -0.026137   0.033358  -0.006049   0.012271
   92  C 23  Z   -0.013201  -0.014956   0.029891  -0.044166   0.008385
   93  C 24  S    0.132222   0.207506   0.099039  -0.177142   0.135349
   94  C 24  X    0.021405   0.024713   0.027741  -0.046647  -0.017893
   95  C 24  Y    0.003937   0.009163  -0.036031   0.030063   0.023880
   96  C 24  Z   -0.032817  -0.056292  -0.023185   0.024080  -0.055081
   97  C 25  S    0.117724   0.142936   0.088939  -0.195463  -0.014559
   98  C 25  X    0.000022  -0.019834   0.000475  -0.004366  -0.051359
   99  C 25  Y   -0.002817  -0.004108  -0.044427   0.026073   0.005638
  100  C 25  Z   -0.028206  -0.039598  -0.026994   0.038256  -0.011397
  101  C 26  S    0.104800   0.090478  -0.040853  -0.126154  -0.083461
  102  C 26  X    0.000248  -0.025237  -0.006122  -0.015913  -0.043233
  103  C 26  Y   -0.003733  -0.006432  -0.040640   0.029545  -0.005649
  104  C 26  Z   -0.021316  -0.022554   0.016185   0.008853   0.007714
  105  C 27  S    0.119538   0.141861  -0.142353   0.009361  -0.026345
  106  C 27  X    0.003654  -0.016754  -0.014204  -0.026014  -0.057385
  107  C 27  Y   -0.011847  -0.018127  -0.015313   0.028745  -0.015295
  108  C 27  Z   -0.028009  -0.038657   0.048049  -0.042095  -0.006044
  109  C 28  S    0.136536   0.205802   0.175398  -0.203265   0.090691
  110  C 28  X    0.027823   0.031817   0.053492  -0.050262  -0.025941
  111  C 28  Y    0.031701   0.054259   0.016636  -0.032478   0.054321
  112  C 28  Z   -0.009981  -0.016013  -0.011162  -0.011223  -0.011962
  113  C 29  S    0.128982   0.149738   0.217734  -0.187738  -0.061695
  114  C 29  X    0.002429  -0.018846   0.013113   0.020728  -0.054214
  115  C 29  Y    0.036717   0.048450   0.051356  -0.060068   0.001109
  116  C 29  Z   -0.012852  -0.014972  -0.024781  -0.006826   0.006604
  117  C 30  S    0.138434   0.007172   0.231664   0.103333  -0.228327
  118  C 30  X    0.009080  -0.037427   0.004299   0.057769  -0.007609
  119  C 30  Y    0.027043  -0.001152   0.035251   0.028364  -0.036807
  120  C 30  Z    0.010136   0.002417   0.022943  -0.024115  -0.015769
  121  C 31  S    0.129702   0.109214   0.223017  -0.053082  -0.140107
  122  C 31  X    0.000585  -0.032361   0.007246   0.050326  -0.056158
  123  C 31  Y    0.025519   0.026116   0.032357  -0.005511  -0.012369
  124  C 31  Z    0.013661   0.015564   0.030961  -0.045203  -0.009958
  125  C 32  S    0.141606  -0.047530  -0.175024  -0.201674  -0.187370
  126  C 32  X    0.009308  -0.031303   0.000392  -0.024694   0.026988
  127  C 32  Y   -0.012550   0.006795  -0.009309   0.018775  -0.001342
  128  C 32  Z   -0.031875   0.013543   0.051971   0.033919   0.042654
  129  C 33  S    0.110904   0.000446  -0.059928  -0.161794  -0.150552
  130  C 33  X    0.005808  -0.029180  -0.004475  -0.008539   0.002666
  131  C 33  Y    0.000028  -0.001277  -0.038957  -0.001710  -0.008837
  132  C 33  Z   -0.022542   0.002381   0.020203   0.025267   0.028937
  133  C 34  S    0.122080  -0.047855   0.041602  -0.103871  -0.104405
  134  C 34  X    0.005820  -0.027900  -0.006441   0.019267   0.038931
  135  C 34  Y    0.003840  -0.004443  -0.039448  -0.032966   0.002401
  136  C 34  Z   -0.025482   0.014441  -0.014251   0.003626   0.012773
  137  C 35  S    0.118809   0.003992   0.152341  -0.066030  -0.168010
  138  C 35  X    0.001644  -0.031638  -0.010586   0.040202   0.011168
  139  C 35  Y    0.010638  -0.002483  -0.009977  -0.025296  -0.004794
  140  C 35  Z   -0.023682   0.002306  -0.042250  -0.016250   0.035179
  141  C 36  S    0.120196   0.103673   0.174723  -0.183746  -0.114461
  142  C 36  X   -0.005208  -0.034678  -0.007743   0.039073  -0.042079
  143  C 36  Y    0.011881   0.012520  -0.004052  -0.027222   0.000240
  144  C 36  Z   -0.024819  -0.023602  -0.046606   0.022850   0.020930
  145  C 37  S    0.140766  -0.043850   0.210344   0.093240  -0.185463
  146  C 37  X    0.004653  -0.029984  -0.011027   0.037935   0.033708
  147  C 37  Y    0.033259  -0.014708   0.038220   0.014720  -0.030194
  148  C 37  Z   -0.019399   0.009691  -0.034812  -0.051764   0.028966
  149  C 38  S    0.185538  -0.176102   0.097084   0.082938   0.131270
  150  C 38  X   -0.028929   0.018721  -0.031791  -0.021080   0.024391
  151  C 38  Y    0.037722  -0.041598  -0.012323  -0.023158   0.060658
  152  C 38  Z   -0.035823   0.036127  -0.025877  -0.046833  -0.032438
  153  C 39  S    0.173955  -0.130672   0.183914   0.177458  -0.041217
  154  C 39  X   -0.010628  -0.010537  -0.038894  -0.018145   0.076085
  155  C 39  Y    0.048098  -0.044833   0.028332   0.033112   0.029350
  156  C 39  Z   -0.013521   0.010631  -0.018715  -0.042891   0.006479
  157  C 40  S    0.181455  -0.138109  -0.171510  -0.233813  -0.047251
  158  C 40  X   -0.004111  -0.016587   0.030190   0.022759   0.080685
  159  C 40  Y   -0.030149   0.030718  -0.000728   0.021788  -0.033682
  160  C 40  Z   -0.036227   0.031029   0.038545   0.030930  -0.003183
  161  C 41  S    0.195114  -0.186436  -0.073166  -0.149941   0.137886
  162  C 41  X   -0.022810   0.012413   0.021857   0.041483   0.033432
  163  C 41  Y   -0.015242   0.018152  -0.032923  -0.032701  -0.038011
  164  C 41  Z   -0.049677   0.051769   0.018994   0.021257  -0.056342
  165  C 42  S    0.171640  -0.148990   0.025379  -0.058780   0.069692
  166  C 42  X    0.004409  -0.018573  -0.004218   0.015606   0.061606
  167  C 42  Y    0.010324  -0.011342  -0.039366  -0.050571   0.012572
  168  C 42  Z   -0.046426   0.046530  -0.011694  -0.009828  -0.044219
  169  C 43  S    0.194453  -0.202349  -0.043730  -0.067555   0.231595
  170  C 43  X   -0.064817   0.064253   0.022245   0.032541  -0.055924
  171  C 43  Y   -0.024265   0.027956  -0.026076  -0.033481  -0.050214
  172  C 43  Z   -0.006340   0.007104  -0.001693  -0.018917  -0.011923
  173  C 44  S    0.195696  -0.203183   0.043089   0.058771   0.234472
  174  C 44  X   -0.064395   0.063525  -0.022289  -0.030660  -0.055796
  175  C 44  Y    0.024690  -0.028609  -0.026844  -0.035813   0.049649
  176  C 44  Z    0.006422  -0.007255  -0.001622  -0.019307   0.011552

                      6          7          8          9         10
                   -1.5393    -1.4042    -1.3523    -1.3108    -1.3094
                     A          A          A          A          A   
    1  C  1  S   -0.174081  -0.093363   0.118776  -0.014460   0.201356
    2  C  1  X   -0.048245  -0.035239  -0.044606   0.040746   0.027560
    3  C  1  Y    0.001858  -0.021270   0.075252  -0.065893  -0.016334
    4  C  1  Z   -0.005940   0.051602   0.019345   0.005525   0.049107
    5  C  2  S   -0.053590  -0.092848   0.257418  -0.103367   0.011859
    6  C  2  X   -0.024335  -0.039726   0.024976  -0.019174   0.009534
    7  C  2  Y    0.048458  -0.014241   0.006925   0.013392  -0.098354
    8  C  2  Z    0.019008   0.059792   0.060249  -0.007712   0.003901
    9  C  3  S   -0.016847  -0.202116   0.051835  -0.052062  -0.097890
   10  C  3  X   -0.017709  -0.049373  -0.074255  -0.011321   0.007110
   11  C  3  Y    0.040926   0.016498  -0.061799   0.055289  -0.030586
   12  C  3  Z    0.031127   0.001941   0.066349   0.020214  -0.045264
   13  C  4  S   -0.221502  -0.177845  -0.011815   0.049111   0.081525
   14  C  4  X   -0.008266  -0.003783  -0.023119   0.015777  -0.063146
   15  C  4  Y   -0.019098  -0.034644   0.013690  -0.077527  -0.004688
   16  C  4  Z   -0.030790  -0.003566  -0.010322   0.064241   0.045472
   17  C  5  S    0.064261   0.172319   0.178775  -0.006310   0.101396
   18  C  5  X    0.015553   0.009868  -0.072469  -0.018295   0.093192
   19  C  5  Y   -0.024386   0.059829  -0.030004  -0.042150   0.012536
   20  C  5  Z    0.060855  -0.025450   0.022471   0.025540   0.068355
   21  C  6  S   -0.059353   0.085617   0.194454   0.007952  -0.128498
   22  C  6  X    0.040934   0.060989   0.036709  -0.016597   0.046621
   23  C  6  Y   -0.039983   0.035607  -0.019961  -0.079289  -0.006818
   24  C  6  Z    0.032922  -0.006561   0.053094   0.060927  -0.011732
   25  C  7  S   -0.193733   0.048014   0.011719  -0.221112  -0.114501
   26  C  7  X    0.017468   0.082113   0.035816   0.001190  -0.011047
   27  C  7  Y   -0.022325   0.014457  -0.049260  -0.068175   0.021657
   28  C  7  Z   -0.021009   0.008929   0.018194  -0.005782  -0.020598
   29  C  8  S   -0.213932  -0.169662  -0.062740  -0.187790  -0.032539
   30  C  8  X   -0.008369   0.051308  -0.001429  -0.024511  -0.035294
   31  C  8  Y   -0.001218  -0.010960  -0.041780  -0.065683   0.006499
   32  C  8  Z   -0.030975  -0.030856  -0.001684   0.003932   0.003070
   33  C  9  S   -0.127127  -0.221976  -0.151160  -0.168773  -0.009214
   34  C  9  X   -0.033438   0.023800  -0.049601  -0.045897   0.021641
   35  C  9  Y    0.039280   0.015732  -0.049293   0.042955   0.003155
   36  C  9  Z   -0.002928  -0.038617  -0.016981   0.003008  -0.005884
   37  C 10  S    0.088269  -0.025376  -0.199763   0.188798   0.057133
   38  C 10  X   -0.026735   0.025168  -0.024100  -0.018268   0.091385
   39  C 10  Y   -0.013211   0.030005   0.044168  -0.014462   0.015300
   40  C 10  Z    0.056912   0.055976   0.019768   0.078896   0.001398
   41  C 11  S    0.121228  -0.068790  -0.020096   0.145358  -0.147879
   42  C 11  X    0.023783  -0.009325  -0.084670   0.056374   0.017022
   43  C 11  Y   -0.003658   0.033062  -0.060072   0.031543   0.049416
   44  C 11  Z    0.050435   0.067417   0.039612   0.048453  -0.027451
   45  C 12  S   -0.184978   0.016385   0.148662   0.113402  -0.121709
   46  C 12  X    0.009269  -0.016038  -0.060381   0.020407  -0.098932
   47  C 12  Y    0.038941  -0.000698   0.005434  -0.019182   0.073504
   48  C 12  Z    0.020514  -0.068438   0.051082   0.025291   0.007422
   49  C 13  S   -0.145604   0.083011   0.100533   0.039717   0.158614
   50  C 13  X   -0.031477  -0.005374   0.055503   0.007579  -0.088470
   51  C 13  Y    0.039882  -0.021401  -0.007715   0.017991  -0.002331
   52  C 13  Z    0.017780  -0.026108   0.077015   0.048440   0.037142
   53  C 14  S   -0.182705   0.095011  -0.110593  -0.152136   0.112984
   54  C 14  X   -0.022016   0.048683   0.063466   0.001458  -0.043931
   55  C 14  Y    0.035938  -0.012586   0.015650   0.071896   0.038749
   56  C 14  Z   -0.010077   0.015873   0.014074   0.032768   0.047914
   57  C 15  S   -0.085629  -0.078359  -0.244573  -0.075777   0.106540
   58  C 15  X   -0.038417   0.063813   0.019459  -0.045288   0.045966
   59  C 15  Y    0.036235   0.036155   0.019331   0.070504   0.024638
   60  C 15  Z    0.020486   0.006567  -0.029024   0.054433   0.033597
   61  C 16  S   -0.176186   0.103057  -0.054806   0.108377  -0.240039
   62  C 16  X    0.049574  -0.032630  -0.035240   0.006964   0.032779
   63  C 16  Y    0.005864  -0.041935   0.060802   0.000987   0.007631
   64  C 16  Z   -0.009338  -0.060286   0.005881   0.052357  -0.045749
   65  C 17  S   -0.017850   0.236545  -0.046105  -0.028396   0.087877
   66  C 17  X    0.012770  -0.053632  -0.052284   0.036227   0.011443
   67  C 17  Y   -0.056755   0.026656  -0.059254   0.009285  -0.092312
   68  C 17  Z    0.034719  -0.008460  -0.030053   0.019874   0.070473
   69  C 18  S   -0.173642   0.266166  -0.055257  -0.070128  -0.137713
   70  C 18  X    0.025889  -0.015489  -0.032711   0.065730  -0.003520
   71  C 18  Y   -0.027422  -0.032725  -0.001203   0.024128  -0.041498
   72  C 18  Z   -0.022466   0.024152  -0.020442   0.032619  -0.029045
   73  C 19  S   -0.213694   0.188329  -0.041490  -0.245758  -0.072857
   74  C 19  X    0.011564   0.048510   0.024038   0.045672  -0.028602
   75  C 19  Y   -0.006701  -0.009960  -0.022699   0.019158   0.030944
   76  C 19  Z   -0.031449   0.033119   0.000650  -0.013766  -0.006052
   77  C 20  S    0.176866   0.102962   0.113700   0.091565  -0.180879
   78  C 20  X    0.050283   0.035731  -0.044221   0.049216  -0.008582
   79  C 20  Y   -0.000101  -0.020933  -0.073894   0.062686   0.022345
   80  C 20  Z   -0.008081   0.045621  -0.022755  -0.033416   0.034224
   81  C 21  S    0.058174   0.100047   0.253669  -0.086723  -0.065068
   82  C 21  X    0.024652   0.039502   0.028666  -0.014780  -0.019578
   83  C 21  Y    0.047431  -0.013076  -0.009010   0.044375  -0.088949
   84  C 21  Z    0.016352   0.052665  -0.061336   0.001311   0.004643
   85  C 22  S    0.024756   0.057894   0.105224   0.096182   0.265869
   86  C 22  X   -0.055371  -0.035298   0.092960  -0.030093  -0.017927
   87  C 22  Y   -0.013043  -0.001564  -0.024498   0.013569  -0.022088
   88  C 22  Z    0.040050  -0.016224   0.027797  -0.024903  -0.034997
   89  C 23  S    0.154656   0.110568  -0.087324   0.207540   0.154794
   90  C 23  X   -0.036995  -0.001637   0.034170  -0.040257   0.096565
   91  C 23  Y   -0.039705  -0.023205   0.010695  -0.010979   0.008054
   92  C 23  Z    0.020578   0.021006   0.049474  -0.038503  -0.030247
   93  C 24  S    0.012166   0.194282   0.052702  -0.111465   0.061336
   94  C 24  X    0.014410   0.044114  -0.075213  -0.007901  -0.010358
   95  C 24  Y    0.042167   0.017637   0.062720  -0.031503  -0.059732
   96  C 24  Z    0.030237   0.000416  -0.066829   0.008242  -0.050759
   97  C 25  S    0.119195   0.207030  -0.157300  -0.160904  -0.084437
   98  C 25  X    0.032084  -0.026245  -0.051155  -0.024609  -0.045525
   99  C 25  Y    0.040902   0.016432   0.049117  -0.037276  -0.026372
  100  C 25  Z   -0.000147  -0.033439   0.015318   0.001365  -0.009019
  101  C 26  S    0.211559   0.163603  -0.073936  -0.179652  -0.089901
  102  C 26  X    0.007090  -0.049937  -0.001505  -0.038751   0.016226
  103  C 26  Y    0.002526  -0.005746   0.039115   0.055656   0.037766
  104  C 26  Z   -0.031033  -0.030192   0.004179  -0.005158   0.002917
  105  C 27  S    0.225617   0.181222  -0.025494   0.084894  -0.062074
  106  C 27  X    0.009761   0.004644  -0.026168  -0.018718   0.058222
  107  C 27  Y   -0.019303  -0.032849  -0.012555   0.067159   0.038686
  108  C 27  Z   -0.034481  -0.007794   0.011645  -0.078986   0.005027
  109  C 28  S   -0.119870   0.071128  -0.026142   0.039420   0.206810
  110  C 28  X   -0.025245   0.007555  -0.083915   0.056515   0.017434
  111  C 28  Y   -0.006150   0.032804   0.057571  -0.054357   0.030212
  112  C 28  Z    0.046346   0.058863  -0.040905  -0.030139  -0.045805
  113  C 29  S   -0.086623   0.024934  -0.199943   0.184583   0.055286
  114  C 29  X    0.026660  -0.025286  -0.023362   0.033943  -0.086754
  115  C 29  Y   -0.015667   0.027748  -0.048037   0.005480   0.022565
  116  C 29  Z    0.051727   0.048697  -0.021838  -0.068908  -0.036684
  117  C 30  S   -0.012847  -0.053142   0.111169   0.228035  -0.173612
  118  C 30  X    0.056544   0.034279   0.089455  -0.037426   0.005136
  119  C 30  Y   -0.011930  -0.000938   0.025603   0.002134  -0.026941
  120  C 30  Z    0.040757  -0.016544  -0.029723   0.034454  -0.012524
  121  C 31  S   -0.145610  -0.102966  -0.077154   0.264179  -0.029633
  122  C 31  X    0.037469   0.000060   0.034959   0.018387  -0.102352
  123  C 31  Y   -0.038610  -0.022499  -0.007431   0.006182   0.010077
  124  C 31  Z    0.020166   0.020210  -0.052939   0.044147  -0.001763
  125  C 32  S    0.062942  -0.083084   0.193681  -0.064234   0.104486
  126  C 32  X   -0.041056  -0.060248   0.039468   0.012762  -0.044792
  127  C 32  Y   -0.037334   0.036064   0.018164   0.069271   0.038372
  128  C 32  Z    0.029070  -0.006435  -0.054909  -0.042910  -0.045274
  129  C 33  S    0.190113  -0.048020   0.006170  -0.250700  -0.035805
  130  C 33  X   -0.017341  -0.079827   0.039725  -0.004466   0.012642
  131  C 33  Y   -0.019472   0.016057   0.049178   0.046804   0.054237
  132  C 33  Z   -0.020741   0.007888  -0.016988   0.015725  -0.012584
  133  C 34  S    0.208786  -0.185971  -0.043188  -0.251114  -0.075671
  134  C 34  X   -0.010234  -0.047169   0.025828   0.023129   0.050329
  135  C 34  Y   -0.007338  -0.009622   0.023036  -0.032174   0.012327
  136  C 34  Z   -0.029285   0.030057  -0.000949   0.013340   0.001428
  137  C 35  S    0.179189  -0.096833  -0.110862  -0.070898  -0.174094
[...]
  114  C 29  X   -0.035037   0.016002   0.003978   0.023452  -0.000794
  115  C 29  Y   -0.167975   0.144140  -0.065176   0.140472  -0.133966
  116  C 29  Z    0.076659  -0.042890   0.045670  -0.052784   0.038748
  117  C 30  S   -0.017503  -0.016233   0.002719   0.057242  -0.047853
  118  C 30  X   -0.013980  -0.004727  -0.006215   0.053771  -0.065338
  119  C 30  Y    0.182081   0.068387   0.006638  -0.075783   0.115759
  120  C 30  Z    0.038178   0.053961  -0.057877  -0.001516   0.053637
  121  C 31  S    0.028132   0.013762  -0.008879   0.036803  -0.055949
  122  C 31  X   -0.024884  -0.017203   0.003309  -0.024162   0.054892
  123  C 31  Y   -0.198338  -0.111261   0.003535  -0.011111   0.076698
  124  C 31  Z   -0.099537  -0.020157  -0.033030   0.013554   0.020379
  125  C 32  S   -0.031095   0.002811   0.025223  -0.061190   0.067085
  126  C 32  X   -0.003847  -0.028812  -0.028306   0.026648  -0.032706
  127  C 32  Y   -0.126860   0.031331   0.082771  -0.035685   0.146013
  128  C 32  Z   -0.184859   0.069406   0.166074  -0.050500   0.183900
  129  C 33  S    0.011246  -0.013805  -0.036880   0.051324  -0.034837
  130  C 33  X    0.010386  -0.023555  -0.036653   0.041574  -0.028199
  131  C 33  Y    0.036264  -0.016394  -0.021365   0.025367  -0.060208
  132  C 33  Z    0.148310  -0.143671  -0.195713   0.089090  -0.110768
  133  C 34  S    0.009380   0.023016   0.031911  -0.026216  -0.013364
  134  C 34  X    0.031339   0.015250  -0.048225   0.067123  -0.053827
  135  C 34  Y   -0.034602  -0.029395  -0.039337   0.055362   0.044860
  136  C 34  Z    0.115876   0.220574   0.158460  -0.182907  -0.161113
  137  C 35  S    0.005904  -0.000049  -0.040291   0.062142  -0.028158
  138  C 35  X   -0.001324   0.017796  -0.058404   0.092384  -0.006457
  139  C 35  Y   -0.012196  -0.072905   0.103300  -0.165091  -0.015709
  140  C 35  Z    0.013515   0.071410  -0.148357   0.196594   0.094328
  141  C 36  S   -0.002993   0.001394  -0.037039   0.049830  -0.023422
  142  C 36  X   -0.000687  -0.009396   0.019495  -0.028006   0.012755
  143  C 36  Y    0.059671   0.020275   0.048331  -0.001885   0.049586
  144  C 36  Z   -0.060225  -0.077715  -0.083927  -0.023091  -0.001106
  145  C 37  S   -0.015568  -0.014511   0.029128  -0.067855   0.075452
  146  C 37  X   -0.018517  -0.012256  -0.019469   0.051646   0.001622
  147  C 37  Y    0.040261   0.176130  -0.147472   0.121019  -0.131209
  148  C 37  Z   -0.014117  -0.078027   0.099238  -0.063731   0.030286
  149  C 38  S   -0.005538   0.002395  -0.067564   0.119267   0.000955
  150  C 38  X   -0.044553   0.016100  -0.104524   0.186288   0.030373
  151  C 38  Y    0.057996  -0.027132   0.099810  -0.144668  -0.067293
  152  C 38  Z   -0.032549   0.040275  -0.118394   0.143767   0.020787
  153  C 39  S    0.030843   0.003744   0.047899  -0.057228  -0.053651
  154  C 39  X    0.063189   0.006394   0.052106  -0.081835  -0.067940
  155  C 39  Y   -0.146227  -0.058309  -0.017970   0.097923   0.164144
  156  C 39  Z    0.028056   0.037264  -0.002892  -0.034278  -0.014806
  157  C 40  S    0.014765   0.050057   0.053753  -0.005723   0.018465
  158  C 40  X    0.014748   0.083976   0.066226  -0.019251   0.015112
  159  C 40  Y    0.070426   0.131266   0.045183   0.017501  -0.011327
  160  C 40  Z    0.080174   0.119362   0.034302  -0.049213  -0.042684
  161  C 41  S    0.015786  -0.050338  -0.076026   0.084959  -0.045619
  162  C 41  X    0.034603  -0.127330  -0.118496   0.103175  -0.053383
  163  C 41  Y   -0.000059  -0.067535  -0.036438   0.008588  -0.010219
  164  C 41  Z    0.046060  -0.156520  -0.173283   0.079202  -0.072129
  165  C 42  S   -0.028962  -0.003999   0.074256  -0.100718   0.053964
  166  C 42  X   -0.066508  -0.025776   0.093351  -0.086475   0.058281
  167  C 42  Y    0.028946   0.064515  -0.029999   0.046994  -0.010698
  168  C 42  Z   -0.177579  -0.115046   0.136152  -0.084066   0.167340
  169  C 43  S   -0.006031   0.014304   0.001189  -0.066975   0.018838
  170  C 43  X    0.009242   0.041942  -0.011280  -0.072981  -0.002510
  171  C 43  Y    0.010543   0.030975  -0.011379  -0.092559   0.002481
  172  C 43  Z   -0.006321   0.032504   0.036954  -0.013176   0.014460
  173  C 44  S   -0.004014   0.014023  -0.001936  -0.068058   0.014166
  174  C 44  X    0.019130   0.040687   0.009894  -0.075424  -0.011940
  175  C 44  Y   -0.012791  -0.030714  -0.009917   0.093419   0.000519
  176  C 44  Z    0.005769  -0.032301   0.037034   0.012631  -0.014590

                     96         97         98
                   -0.0545    -0.0492    -0.0449
                     A          A          A   
    1  C  1  S    0.008745  -0.021806  -0.024709
    2  C  1  X   -0.005238   0.024758   0.043324
    3  C  1  Y   -0.054504   0.010720  -0.002474
    4  C  1  Z   -0.030886   0.012420   0.018032
    5  C  2  S    0.086540   0.030110   0.079271
    6  C  2  X   -0.147756  -0.055621  -0.099253
    7  C  2  Y    0.023245  -0.006534   0.002394
    8  C  2  Z   -0.023903  -0.005019  -0.011184
    9  C  3  S   -0.080180  -0.000987  -0.049561
   10  C  3  X    0.104120   0.021396   0.052538
   11  C  3  Y   -0.009312   0.009394  -0.000562
   12  C  3  Z    0.113541   0.003872   0.043830
   13  C  4  S   -0.063534   0.005012   0.007690
   14  C  4  X    0.038640  -0.006499   0.003889
   15  C  4  Y    0.133606   0.012974  -0.015683
   16  C  4  Z    0.178941   0.021331   0.050749
   17  C  5  S    0.022249  -0.134939   0.046768
   18  C  5  X    0.035800  -0.084431   0.043055
   19  C  5  Y   -0.108526   0.218272  -0.020133
   20  C  5  Z   -0.076278   0.087692  -0.025047
   21  C  6  S   -0.060707   0.057563  -0.005347
   22  C  6  X    0.024894   0.060406  -0.021598
   23  C  6  Y    0.123793  -0.102854  -0.020463
   24  C  6  Z    0.136119  -0.165877  -0.061063
   25  C  7  S    0.021917  -0.013056  -0.038238
   26  C  7  X    0.023606  -0.002799  -0.005090
   27  C  7  Y   -0.042872   0.052886   0.026833
   28  C  7  Z    0.026301  -0.000749   0.261456
   29  C  8  S    0.026137   0.016182   0.026508
   30  C  8  X   -0.033700  -0.005592  -0.010704
   31  C  8  Y   -0.094323  -0.005910  -0.062568
   32  C  8  Z   -0.147295  -0.059481  -0.237139
   33  C  9  S    0.053294  -0.020938   0.025631
   34  C  9  X   -0.051359  -0.006927  -0.019330
   35  C  9  Y    0.048530   0.000127   0.022611
   36  C  9  Z   -0.062546   0.040221   0.004286
   37  C 10  S    0.067723   0.011243  -0.002781
   38  C 10  X    0.004330  -0.000638  -0.001995
   39  C 10  Y    0.130305   0.013067  -0.007720
   40  C 10  Z   -0.035482  -0.002884  -0.024478
   41  C 11  S    0.004968  -0.012568   0.006399
   42  C 11  X   -0.000251   0.013226  -0.010942
   43  C 11  Y   -0.037453  -0.012718  -0.001026
   44  C 11  Z    0.011348   0.002699  -0.003153
   45  C 12  S    0.033053  -0.135582  -0.002572
   46  C 12  X    0.000626  -0.103150  -0.005643
   47  C 12  Y   -0.050767  -0.252304   0.018709
   48  C 12  Z    0.022547  -0.034951   0.016877
   49  C 13  S    0.046884   0.074678  -0.002401
   50  C 13  X   -0.044177   0.053204   0.000437
   51  C 13  Y    0.142856   0.230554  -0.025943
   52  C 13  Z   -0.036847  -0.093652   0.038487
   53  C 14  S   -0.019882  -0.024594   0.041548
   54  C 14  X   -0.050112  -0.014517   0.013412
   55  C 14  Y   -0.032863  -0.034945   0.116292
   56  C 14  Z    0.003355  -0.046014  -0.162313
   57  C 15  S   -0.056226   0.005898  -0.039249
   58  C 15  X    0.028039   0.007295  -0.009700
   59  C 15  Y   -0.102580  -0.009372  -0.106704
   60  C 15  Z    0.103928  -0.006776   0.179903
   61  C 16  S   -0.087680   0.015732   0.083334
   62  C 16  X   -0.091287  -0.045256   0.092874
   63  C 16  Y    0.005178   0.046754  -0.006698
   64  C 16  Z   -0.005224   0.036872   0.007393
   65  C 17  S    0.061154   0.042486  -0.119082
   66  C 17  X    0.067584  -0.010618  -0.127811
   67  C 17  Y    0.026016  -0.049173   0.016259
   68  C 17  Z    0.051977   0.001484   0.048990
   69  C 18  S    0.005505   0.030382   0.012463
   70  C 18  X    0.001172   0.063078   0.022063
   71  C 18  Y    0.047372   0.082308  -0.076637
   72  C 18  Z    0.041879  -0.275944  -0.035043
   73  C 19  S    0.014446  -0.046028   0.008625
   74  C 19  X    0.000029  -0.058597  -0.008211
   75  C 19  Y    0.039748  -0.048157  -0.032162
   76  C 19  Z   -0.058309   0.279732  -0.032478
   77  C 20  S   -0.005876   0.022795   0.025620
   78  C 20  X   -0.001750  -0.026627  -0.045368
   79  C 20  Y   -0.047910   0.012163  -0.000329
   80  C 20  Z   -0.024169   0.013421   0.020400
   81  C 21  S   -0.086883  -0.030793  -0.079201
   82  C 21  X    0.149146   0.057493   0.099666
   83  C 21  Y    0.020969  -0.006986   0.001670
   84  C 21  Z   -0.023947  -0.006210  -0.010955
   85  C 22  S   -0.056769  -0.012178  -0.041477
   86  C 22  X   -0.053575  -0.007855   0.000279
   87  C 22  Y   -0.146247  -0.026996  -0.193596
   88  C 22  Z   -0.034065   0.004681  -0.052145
   89  C 23  S   -0.041833  -0.001301   0.057478
   90  C 23  X    0.040964   0.002682  -0.025706
   91  C 23  Y   -0.027212   0.006273   0.208332
   92  C 23  Z    0.005988   0.004061   0.089391
   93  C 24  S    0.078342   0.001625   0.048509
   94  C 24  X   -0.100887  -0.022276  -0.051212
   95  C 24  Y   -0.008250   0.009011  -0.000034
   96  C 24  Z    0.106847   0.004271   0.041147
   97  C 25  S   -0.051848   0.021037  -0.024869
   98  C 25  X    0.048305   0.006993   0.018128
   99  C 25  Y    0.047012  -0.000078   0.021617
  100  C 25  Z   -0.054001   0.041772   0.007229
  101  C 26  S   -0.024835  -0.016243  -0.025461
  102  C 26  X    0.033477   0.005962   0.010176
  103  C 26  Y   -0.092980  -0.006509  -0.061400
  104  C 26  Z   -0.151172  -0.062562  -0.235930
  105  C 27  S    0.059917  -0.005241  -0.009191
  106  C 27  X   -0.035183   0.006905  -0.002715
  107  C 27  Y    0.127490   0.012980  -0.017591
  108  C 27  Z    0.171752   0.021965   0.047599
  109  C 28  S   -0.005207   0.011733  -0.006131
  110  C 28  X    0.000839  -0.012123   0.010595
  111  C 28  Y   -0.037277  -0.012144  -0.001482
  112  C 28  Z    0.013198   0.002611  -0.002205
  113  C 29  S   -0.069733  -0.011016   0.002072
  114  C 29  X   -0.004365   0.000444   0.002127
  115  C 29  Y    0.135214   0.013731  -0.006182
  116  C 29  Z   -0.036743  -0.003120  -0.024806
  117  C 30  S    0.058808   0.012025   0.043133
  118  C 30  X    0.056164   0.007818   0.001069
  119  C 30  Y   -0.151596  -0.026451  -0.196987
  120  C 30  Z   -0.036639   0.004486  -0.053282
  121  C 31  S    0.043911   0.001398  -0.057064
  122  C 31  X   -0.043313  -0.002780   0.025132
  123  C 31  Y   -0.030574   0.005460   0.209121
  124  C 31  Z    0.004894   0.003798   0.089763
  125  C 32  S    0.058237  -0.057327   0.003558
  126  C 32  X   -0.023600  -0.059842   0.021817
  127  C 32  Y    0.117635  -0.102888  -0.023103
  128  C 32  Z    0.128505  -0.165805  -0.063715
  129  C 33  S   -0.020968   0.013300   0.038699
  130  C 33  X   -0.022494   0.003053   0.005660
  131  C 33  Y   -0.040387   0.052544   0.027448
  132  C 33  Z    0.030445   0.000385   0.260167
  133  C 34  S   -0.013599   0.045340  -0.008114
  134  C 34  X    0.001952   0.058934   0.008971
  135  C 34  Y    0.037626  -0.048486  -0.033137
  136  C 34  Z   -0.050407   0.281252  -0.028986
  137  C 35  S    0.020975   0.024615  -0.041552
  138  C 35  X    0.049439   0.014472  -0.013511
  139  C 35  Y   -0.031134  -0.034187   0.116091
  140  C 35  Z   -0.001951  -0.046611  -0.163502
  141  C 36  S    0.056387  -0.006033   0.038989
  142  C 36  X   -0.028534  -0.007217   0.009707
  143  C 36  Y   -0.105064  -0.009916  -0.107450
  144  C 36  Z    0.104748  -0.006285   0.179928
  145  C 37  S   -0.049721  -0.074583   0.001109
  146  C 37  X    0.043864  -0.053974  -0.000085
  147  C 37  Y    0.148609   0.231267  -0.022848
  148  C 37  Z   -0.037909  -0.093712   0.038175
  149  C 38  S    0.087041  -0.016384  -0.083219
  150  C 38  X    0.089200   0.043928  -0.093060
  151  C 38  Y    0.008814   0.048681  -0.006418
  152  C 38  Z   -0.006729   0.035789   0.007564
  153  C 39  S   -0.030495   0.136948   0.002762
  154  C 39  X    0.002753   0.104207   0.006064
  155  C 39  Y   -0.058377  -0.253959   0.017058
  156  C 39  Z    0.023449  -0.035332   0.017770
  157  C 40  S   -0.022999   0.133572  -0.045775
  158  C 40  X   -0.036359   0.083726  -0.042215
  159  C 40  Y   -0.108344   0.217078  -0.018142
  160  C 40  Z   -0.074277   0.087459  -0.023202
  161  C 41  S   -0.059713  -0.041656   0.118772
  162  C 41  X   -0.065891   0.011513   0.127228
  163  C 41  Y    0.026346  -0.048467   0.015644
  164  C 41  Z    0.054618   0.003187   0.048253
  165  C 42  S   -0.007307  -0.030638  -0.013131
  166  C 42  X   -0.003218  -0.063339  -0.022486
  167  C 42  Y    0.047621   0.081626  -0.075752
  168  C 42  Z    0.035190  -0.276931  -0.037415
  169  C 43  S    0.162073   0.022936  -0.169192
  170  C 43  X    0.299134   0.028612  -0.213865
  171  C 43  Y    0.092164   0.021177  -0.076918
  172  C 43  Z    0.024078  -0.029430  -0.026573
  173  C 44  S   -0.162408  -0.022972   0.169231
  174  C 44  X   -0.298389  -0.028366   0.214162
  175  C 44  Y    0.091529   0.020960  -0.077111
  176  C 44  Z    0.024544  -0.029003  -0.026745

     ----------------------------------------------------------------
     PROPERTY VALUES FOR THE RHF   SELF-CONSISTENT FIELD WAVEFUNCTION
     ----------------------------------------------------------------

                    -------------
                    MOPAC CHARGES
                    -------------
         ATOM NO.   TYPE          CHARGE        ATOM  ELECTRON DENSITY
           1         C              0.0013          3.9987
           2         C              0.0451          3.9549
           3         C              0.0016          3.9984
           4         C             -0.0386          4.0386
           5         C              0.0017          3.9983
           6         C              0.0038          3.9962
           7         C             -0.0019          4.0019
           8         C              0.0668          3.9332
           9         C             -0.0711          4.0711
          10         C             -0.0735          4.0735
          11         C             -0.0248          4.0248
          12         C             -0.0223          4.0223
          13         C              0.0372          3.9628
          14         C             -0.0315          4.0315
          15         C              0.0840          3.9160
          16         C              0.0344          3.9656
          17         C              0.0136          3.9864
          18         C             -0.0244          4.0244
          19         C              0.0332          3.9668
          20         C              0.0020          3.9980
          21         C              0.0441          3.9559
          22         C             -0.0190          4.0190
          23         C              0.0064          3.9936
          24         C              0.0012          3.9988
          25         C             -0.0715          4.0715
          26         C              0.0657          3.9343
          27         C             -0.0382          4.0382
          28         C             -0.0228          4.0228
          29         C             -0.0761          4.0761
          30         C             -0.0191          4.0191
          31         C              0.0064          3.9936
          32         C              0.0033          3.9967
          33         C             -0.0011          4.0011
          34         C              0.0333          3.9667
          35         C             -0.0321          4.0321
          36         C              0.0856          3.9144
          37         C              0.0379          3.9621
          38         C              0.0350          3.9650
          39         C             -0.0225          4.0225
          40         C              0.0016          3.9984
          41         C              0.0133          3.9867
          42         C             -0.0245          4.0245
          43         C             -0.0215          4.0215
          44         C             -0.0222          4.0222

          ---------------------
          ELECTROSTATIC MOMENTS
          ---------------------

 POINT   1           X           Y           Z (ANGS)      CHARGE
                 0.000000    0.000000    0.000000        0.00 (A.U.)
         DX          DY          DZ         /D/  (DEBYE)
     0.941485    0.001323   -0.011277    0.941553
 ...... END OF PROPERTY EVALUATION ......
 CPU     0: STEP CPU TIME=     0.03 TOTAL CPU TIME=          0.6 (      0.0 MIN)
 TOTAL WALL CLOCK TIME=          1.1 SECONDS, CPU UTILIZATION IS    50.63%
  $VIB   
          IVIB=   0 IATOM=   0 ICOORD=   0 E=     -190.2529478118
  4.229757272E-05 1.506285005E-04 3.160008223E-05 1.597104784E-04-3.802200562E-06
  3.211357028E-04-2.971720562E-05 1.296618887E-04 1.012438092E-04 1.059203560E-04
  2.546475762E-05 1.829138294E-04-3.187968974E-05 2.223534342E-04 4.270194746E-05
 -7.554826559E-05-3.090286801E-04-5.085943943E-05-5.040259564E-04 2.526675700E-04
  6.857717030E-04 2.920177136E-04 2.319191290E-04-8.941896702E-05-1.708804538E-05
  2.528233499E-05 3.277471541E-05-9.983124951E-05 3.513532507E-06-9.985956698E-05
  1.686274548E-04-2.182674516E-04 1.073003153E-04-3.638402639E-04 8.372911017E-05
 -1.255888490E-04 3.264476500E-04 2.405677362E-04 4.978590995E-05 1.090448795E-04
 -3.634471482E-04 1.897090595E-04 2.822433500E-05-1.633830975E-04-2.037158777E-05
  3.132547618E-05-2.186313013E-04-3.919463407E-04 2.952702412E-05 1.132681049E-04
  5.226978965E-05-2.979799642E-04 3.228709411E-04 7.319585546E-04 8.731800945E-05
  2.631970619E-04-7.529111016E-04 2.744891135E-05-2.427746359E-07-6.618860991E-05
  4.386577695E-05-3.089836648E-05-3.073431601E-04 1.549458757E-04-6.573058812E-04
  4.748570481E-05-2.984935601E-04-4.221883156E-05 3.593993603E-05 4.435747666E-05
 -1.800914790E-05-4.339837356E-04-3.303271512E-04-3.949033445E-04 6.052037841E-04
  5.003907028E-04-2.031724789E-04-4.822740797E-04 1.217452472E-04 6.198378605E-05
 -3.798568056E-05 2.058176582E-04-6.657609685E-05 9.142092954E-05-3.457774568E-04
 -1.011700329E-04 2.102401319E-04 6.720006703E-05 2.867213442E-04-2.121012719E-04
 -1.918057653E-04 1.301648274E-04-9.478661442E-07 4.936538735E-06 5.993405140E-04
  1.996933908E-04-4.223128845E-04 1.917578454E-05-2.795304198E-04-4.136630282E-04
 -2.988060112E-04-1.441876249E-04 1.717573777E-04-3.622616436E-04 5.403828555E-04
  3.559547180E-04 7.477244743E-04-6.155348064E-04 3.672094220E-04 2.953511007E-04
 -2.089714464E-05-4.658653094E-05 2.364735464E-04 3.375891567E-04-4.088925929E-04
 -3.248668810E-04 3.204712718E-04-5.077016472E-05-5.795545975E-04-3.215704325E-04
  2.034133646E-05 2.634240293E-04-1.857400695E-04 9.602536297E-05-3.861438718E-04
 -3.800567316E-04 1.795493916E-04-2.041996362E-05 2.922234225E-05 1.865329620E-04
  5.762629411E-05 7.248256373E-05
  9.414850211E-01 1.322584832E-03-1.127738558E-02
 ......END OF GEOMETRY SEARCH......
 CPU     0: STEP CPU TIME=     0.02 TOTAL CPU TIME=          0.6 (      0.0 MIN)
 TOTAL WALL CLOCK TIME=          1.1 SECONDS, CPU UTILIZATION IS    51.34%
                580000  WORDS OF DYNAMIC MEMORY USED
 EXECUTION OF GAMESS TERMINATED NORMALLY 21:10:42 27-MAY-2023    
 DDI: 263640 bytes (0.3 MB / 0 MWords) used by master data server.

 ----------------------------------------
 CPU timing information for all processes
 ========================================
 0: 0.375000 + 0.203125 = 0.578125
 1: 0.671875 + 0.203125 = 0.875000
 2: 0.421875 + 0.281250 = 0.703125
 3: 0.406250 + 0.671875 = 1.078125
 ----------------------------------------
           Disk usage (in bytes)       
 ========================================
 ----------------------------------------
            Local date and time          
 ========================================
27.05.2023 - 21:10:42,54                          
