          *******************************************************
          *                                                     *
          *          GAMESS VERSION = 30 SEP 2022 (R2)          *
          *                                                     *
          *              doi.org/10.1063/5.0005188              *
          *                                                     *
          *************** 64 BIT WINDOWS VERSION ****************

  GAMESS HAS BEEN MADE POSSIBLE WITH IMPORTANT CONTRIBUTIONS FROM
  THE FOLLOWING INDIVIDUALS (IN ALPHABETICAL ORDER):

     IVANA ADAMOVIC, CHRISTINE AIKENS, TOMOKO AKAMA,
     MELISA ALKAN, YURI ALEXEEV, YURIKO AOKI, POOJA ARORA,
     TOSHIO ASADA, ANDREY ASADCHEV, KIM K. BALDRIDGE,
     PRADIPTA BANDYOPADHYAY, TAYLOR A. BARNES, MARIA BARYSZ,
     ROB BELL, JONATHAN BENTZ, COLLEEN BERTONI,
     JERRY A. BOATZ, BRETT BODE, KURT BRORSEN, KURT R. BRORSEN,
     LAIMUTIS BYTAUTAS, CALEB CARLIN, LAURA CARRINGTON,
     GALINA CHABAN, BENOIT CHAMPAGNE, WEI CHEN, MAHITO CHIBA,
     DAN CHIPMAN, CHEOL HO CHOI, TANNER CULPITT,
     DIPAYAN DATTA, PAUL DAY, ALBERT DEFUSCO,
     NUWAN DESILVA, J. EMILIANO DEUSTUA,
     TIM DUDLEY, MICHEL DUPUIS, STEVEN T. ELBERT,
     DMITRI FEDOROV, KATHERINE FERRERAS, MICHAEL FILATOV,
     ALEX FINDLATER,GRAHAM FLETCHER, MARK FREITAG,
     CHRISTIAN FRIEDL, DAVID GARMER, 
     IGOR S. GERASIMOV, KURT GLAESEMANN,
     MARK S. GORDON, JEFFREY GOUR, FENG LONG GU,
     EMILIE B. GUIDEZ, ANASTASIA GUNINA, SHARON HAMMES-SCHIFFER,
     MASATAKE HARUTA, KIMIHIKO HIRAO, YASUHIRO IKABATA,
     TZVETELIN IORDANOV, STEPHAN IRLE, KAZUYA ISHIMURA,
     JOE IVANIC, FRANK JENSEN, JAN H. JENSEN, VISVALDAS KAIRYS,
     MUNEAKI KAMIYA, MICHIO KATOUDA, NAOAKI KAWAKAMI, DAN KEMP,
     BERNARD KIRTMAN, KAZUO KITAURA, MARIUSZ KLOBUKOWSKI,
     MASATO KOBAYASHI, KONSTANTIN KOMAROV, PRAKASHAN KORAMBATH,
     JACEK KORCHOWIEC, SHIRO KOSEKI, KAROL KOWALSKI,
     JIMMY KROMANN, STANISLAW KUCHARSKI, HENRY KURTZ,
     SAROM SOK LEANG, SEUNGHOON LEE, HUI LI, SHUHUA LI, WEI LI,
     JESSE LUTZ, ALEKSANDR O. LYKHIN, MARCIN MAKOWSKI,
     JOANI MATO, NIKITA MATSUNAGA, BENEDETTA MENNUCCI,
     GRANT MERRILL, NORIYUKI MINEZAWA, VLADIMIR MIRONOV,
     EISAKU MIYOSHI, JOHN A. MONTGOMERY JR., HIROTOSHI MORI,
     JONATHAN MULLIN, MONIKA MUSIAL, SHIGERU NAGASE,
     TAKESHI NAGATA, HIROMI NAKAI, TAKAHITO NAKAJIMA,
     YUYA NAKAJIMA, HARUYUKI NAKANO, HIROYA NAKATA, SEAN NEDD,
     HEATHER NETZLOFF, KIET A. NGUYEN, YOSHIO NISHIMOTO,
     BOSILJKA NJEGIC, RYAN OLSON, MIKE PAK, ROBERTO PEVERATI,
     BUU PHAM, PIOTR PIECUCH, ANNA POMOGAEVA, DAVID POOLE,
     SPENCER PRUITT, OLIVIER QUINET, LUKE ROSKOP,
     KLAUS RUEDENBERG, ANDREW SAND, TOSAPORN SATTASATHUCHANA,
     NOZOMI SAWADA, MICHAEL W. SCHMIDT, PATRICK E. SCHNEIDER,
     JUNJI SEINO, PRACHI SHARMA, JUN SHEN, JIM SHOEMAKER,
     YINAN SHU, DEJUN SI, JONATHAN SKONE, LYUDMILA SLIPCHENKO,
     TONY SMITH, JIE SONG, MARK SPACKMAN, CASPER STEINMANN,
     WALT STEVENS, PEIFENG SU, SHUJUN SU, CHET SWALINA,
     CHINAMI TAKASHIMA, TETSUYA TAKETSUGU, ZHEN TAO,
     NANDUN THELLAMUREGE, SEIKEN TOKURA, JACOPO TOMASI,
     TSUGUKI TOUMA, TAKAO TSUNEDA, HIROAKI UMEDA,
     JORGE LUIS GALVEZ VALLEJO, YALI WANG, SIMON WEBB,
     AARON WEST, THERESA L. WINDUS, MARTA WLOCH,
     PENG XU, KIYOSHI YAGI, SUSUMU YANAGISAWA, YANG YANG,
     SOOHAENG YOO, TAKESHI YOSHIKAWA, FEDERICO ZAHARIEV,
     TOBY ZENG

  WHO ARE SUPPORTED BY THEIR INSTITUTION/UNIVERSITY/COMPANY/GROUP
  (IN ALPHABETICAL ORDER):

     EP ANALYTICS,
     FACULTES UNIVERSITAIRES NOTRE-DAME DE LA PAIX,
     INSTITUTE FOR MOLECULAR SCIENCE, IOWA STATE UNIVERSITY,
     JACKSON STATE UNIVERSITY, JOHANNES KEPLER UNIVERSITY LINZ,
     KYUNGPOOK NATIONAL UNIVERSITY
     KYUSHU UNIVERSITY, MICHIGAN STATE UNIVERSITY,
     MIE UNIVERSITY, THE MOLECULAR SCIENCES SOFTWARE INSTITUTE,
     MOSCOW STATE UNIVERSITY,
     N. COPERNICUS UNIVERSITY, NAGOYA UNIVERSITY,
     NANJING UNIVERSITY, NAT. INST. OF ADVANCED INDUSTRIAL
     SCIENCE AND TECHNOLOGY, NATIONAL INST. OF STANDARDS AND
     TECHNOLOGY, NESMEYANOV INSTITUTE OF ORGANOELEMENT COMPOUNDS
     OF RUSSIAN ACADEMY OF SCIENCES, OSAKA PREFECTURE UNIVERSITY,
     PENNSYLVANIA STATE UNIVERSITY, TOKYO INSTITUTE OF TECHNOLOGY,
     UNIVERSITY OF AARHUS, UNIVERSITY OF ALBERTA,
     UNIVERSITY OF CALIFORNIA AT SANTA BARBARA,
     UNIVERSITY OF COPENHAGEN, UNIVERSITY OF IOWA,
     UNIVERSITY OF MEMPHIS, UNIVERSITY OF MINNESOTA,
     UNIVERSITY OF NEBRASKA, UNIVERSITY OF NEW ENGLAND,
     UNIVERSITY OF NOTRE DAME, UNIVERSITY OF PISA,
     UNIVERSITY OF SILESIA, UNIVERSITY OF TOKYO,
     UNIVERSITY OF ZURICH, WASEDA UNIVERSITY,
     YALE UNIVERSITY

  GAMESS SOFTWARE MANAGEMENT TEAM FOR THIS RELEASE:
     MARK S. GORDON (TEAM LEAD),
     BRETT BODE (SENIOR ADVISOR),
     GIUSEPPE BARCA,
     COLLEEN BERTONI,
     KRISTOPHER KEIPERT (ADVISOR),
     SAROM S. LEANG (DEVELOPMENT LEAD),
     BUU PHAM,
     JACKSON HAYES (WEBSITE ADMINISTRATOR),
     PENG XU


 PARALLEL VERSION RUNNING ON        2 PROCESSORS IN        2 NODES.

 EXECUTION OF GAMESS BEGUN 21:10:46 27-MAY-2023    

            ECHO OF THE FIRST FEW INPUT CARDS -
 INPUT CARD>! (Energy/Geometry) PM3                                                         
 INPUT CARD> $CONTRL                                                                        
 INPUT CARD>COORD=UNIQUE                                                                    
 INPUT CARD>ICHARG=0                                                                        
 INPUT CARD>MAXIT=200                                                                       
 INPUT CARD>MULT=1                                                                          
 INPUT CARD>RUNTYP=OPTIMIZE                                                                 
 INPUT CARD>SCFTYP=RHF                                                                      
 INPUT CARD>UNITS=ANGS                                                                      
 INPUT CARD>! DFTTYP=PBE                                                                    
 INPUT CARD> $END                                                                           
 INPUT CARD> $DFT                                                                           
 INPUT CARD>METHOD=GRID                                                                     
 INPUT CARD> $END                                                                           
 INPUT CARD> $BASIS                                                                         
 INPUT CARD>! EXTFIL=.T.                                                                    
 INPUT CARD>! GBASIS=GEGSSBAS                                                               
 INPUT CARD>! NGAUSS=6                                                                      
 INPUT CARD>GBASIS=PM3                                                                      
 INPUT CARD>! NDFUNC=1                                                                      
 INPUT CARD>! NPFUNC=1                                                                      
 INPUT CARD> $END                                                                           
 INPUT CARD> $SCF                                                                           
 INPUT CARD>DAMP=.F.                                                                        
 INPUT CARD>DEM=.F.                                                                         
 INPUT CARD>DIIS=.F.                                                                        
 INPUT CARD>DIRSCF=.T.                                                                      
 INPUT CARD>EXTRAP=.T.                                                                      
 INPUT CARD>RSTRCT=.F.                                                                      
 INPUT CARD>SHIFT=.F.                                                                       
 INPUT CARD>SOSCF=.T.                                                                       
 INPUT CARD> $END                                                                           
 INPUT CARD> $STATPT                                                                        
 INPUT CARD>METHOD=QA                                                                       
 INPUT CARD>NSTEP=100                                                                       
 INPUT CARD>OPTTOL=0.001                                                                    
 INPUT CARD> $END                                                                           
 INPUT CARD> $GUESS                                                                         
 INPUT CARD>GUESS=HUCKEL                                                                    
 INPUT CARD> $END                                                                           
 INPUT CARD> $SYSTEM                                                                        
 INPUT CARD>MWORDS=10                                                                       
 INPUT CARD> $END                                                                           
 INPUT CARD> $DATA                                                                          
 INPUT CARD>C44 FULLERENE                                                                   
 INPUT CARD>C1                                                                              
 INPUT CARD>C	6.0	1.1127	0.6948	2.1901                                                      
 INPUT CARD>C	6.0	2.4074	0.7203	1.7719                                                      
 INPUT CARD>C	6.0	3.7801	0.8859	0.0514                                                      
 INPUT CARD>C	6.0	2.884	1.5771	0.8403                                                       
     10000000 WORDS OF MEMORY AVAILABLE

     BASIS OPTIONS
     -------------
     GBASIS=PM3          IGAUSS=       0      POLAR=NONE    
     NDFUNC=       0     NFFUNC=       0     DIFFSP=       F
     NPFUNC=       0      DIFFS=       F     BASNAM=        


     RUN TITLE
     ---------
 C44 FULLERENE                                                                   

 THE POINT GROUP OF THE MOLECULE IS C1      
 THE ORDER OF THE PRINCIPAL AXIS IS     0

 ATOM      ATOMIC                      COORDINATES (BOHR)
           CHARGE         X                   Y                   Z
 C           6.0     2.1026981065        1.3129816163        4.1386888857
 C           6.0     4.5493263428        1.3611696290        3.3484054776
 C           6.0     7.1433532062        1.6741082525        0.0971319158
 C           6.0     5.4499697486        2.9802868552        1.5879367475
 C           6.0    -2.2470731720        2.4889580984        3.6452814303
 C           6.0     0.2859155419        3.0634347987        3.2718715751
 C           6.0     6.2797484298        1.9433942058       -2.2550100211
 C           6.0     4.1940578571        3.4661354067       -2.2415929666
 C           6.0    -3.5328427340        4.0477930657       -0.1814136948
 C           6.0    -0.9783111438        4.2913787455       -0.9348474461
 C           6.0     1.0187512800        4.3467477170        0.9414614871
 C           6.0     3.5683695826        4.1668458029        0.2033345163
 C           6.0    -4.2222147744        3.4513955440        2.2756080344
 C           6.0     5.3983802291       -0.2702308162       -3.1488504133
 C           6.0     5.7666878241       -2.0741632441       -1.2593133982
 C           6.0     3.8045853311       -3.7945697833       -0.9112258713
 C           6.0     3.0263961693       -0.0052912328       -4.2237265552
 C           6.0    -1.3836573682       -1.2067790158       -4.3871878531
 C           6.0     1.1850471669       -1.9014422888       -4.1815856656
 C           6.0     1.6913047590       -3.9533067663       -2.5448939877
 C           6.0    -4.5173899736        1.3623034645       -3.3531297926
 C           6.0    -2.0875802986        1.3615475742       -4.1713811453
 C           6.0    -0.2607821863        3.0881902091       -3.3208154782
 C           6.0     2.2604902265        2.5167370704       -3.6957371142
 C           6.0    -5.4707567345        2.9239730208       -1.5788660627
 C           6.0     5.4769928302       -1.0055231981        2.9768853485
 C           6.0     3.4995835567       -2.6085777535        3.4279629417
 C           6.0     6.8916417046       -0.8367706674        0.8069129968
 C           6.0     2.7966054892       -4.2583085407        1.5267096255
 C           6.0     0.3261667055       -4.8484699667        1.1999760022
 C           6.0    -3.4619780095       -2.5887356306       -3.3699483539
 C           6.0    -2.8194711737       -4.2978038139       -1.5055446944
 C           6.0    -0.3437411572       -4.8966579794       -1.2464632615
 C           6.0    -1.6960290740       -3.9281734107        2.5494293300
 C           6.0    -1.1517879895       -1.9054107134        4.2084197747
 C           6.0     1.4095466142       -1.2474081245        4.4438796327
 C           6.0    -3.0116563066       -0.0304245884        4.1800738848
 C           6.0    -3.8227267006       -3.8287738237        0.9291782682
 C           6.0    -5.7553494682       -2.0737852989        1.2368256590
 C           6.0    -5.3847742020       -0.2161846530        3.0713716478
 C           6.0    -5.4454344062       -0.9837913492       -2.9164141169
 C           6.0    -6.9303810874       -0.8061571064       -0.7785671069
 C           6.0    -7.2436976561        1.7052887313       -0.0976988336
 C           6.0    -6.3613845925        2.0174714645        2.2419709118

          INTERNUCLEAR DISTANCES (ANGS.)
          ------------------------------

                1 C          2 C          3 C          4 C          5 C     

   1 C       0.0000000    1.3608048 *  3.4242634    2.3953950 *  2.3986900 *
   2 C       1.3608048 *  0.0000000    2.2072265 *  1.3524542 *  3.6490633  
   3 C       3.4242634    2.2072265 *  0.0000000    1.3795347 *  5.3295651  
   4 C       2.3953950 *  1.3524542 *  1.3795347 *  0.0000000    4.2240989  
   5 C       2.3986900 *  3.6490633    5.3295651    4.2240989    0.0000000  
   6 C       1.4116399 *  2.4296230 *  4.0658466    2.8746555 *  1.3885726 *
   7 C       4.0551884    3.1186284    1.3335791 *  2.1516063 *  5.4947296  
   8 C       3.7312758    3.1664606    2.2060624 *  2.1481378 *  4.6464756  
   9 C       4.0266808    4.8787452    5.7894295    4.8776564    2.2899845 *
  10 C       3.5143202    4.0122370    4.5483552    3.7195627    2.6897647 *
  11 C       2.4018434 *  2.7584308 *  3.5642609    2.4775920 *  2.4495611 *
  12 C       2.6868319 *  2.2899112 *  2.3069656 *  1.3865519 *  3.6845970  
  13 C       3.6680957    4.8053220    6.1956836    5.1372725    1.3700966 *
  14 C       4.3145412    3.5732865    2.2049481 *  3.0401534    5.6059408  
  15 C       3.8899387    3.1088681    2.2316410 *  3.0744519    5.5272429  
  16 C       3.9060716    3.5608851    3.4323415    3.9191921    5.2082186  
  17 C       4.5064361    4.1507105    3.2808791    3.6876789    5.1835618  
  18 C       5.0534195    5.3348327    5.3212856    5.2899755    4.7011829  
  19 C       4.7449696    4.6934107    4.3183392    4.5922169    5.0843694  
  20 C       4.5080596    4.4634125    4.3756570    4.7118345    5.1667830  
  21 C       5.2905909    5.9662458    6.4371636    5.9489566    3.9387800  
  22 C       4.9249903    5.3075112    5.3843111    5.0923439    4.1800550  
  23 C       4.2460204    4.4462936    4.3798238    3.9853821    3.8463192  
  24 C       4.1952829    3.9668551    3.3020927    3.2751270    4.5585926  
  25 C       5.0933948    5.9663984    6.7661659    6.0171451    3.2566159  
  26 C       2.2520280 *  1.3594632 *  2.2606562 *  2.2336415 *  4.5001648  
  27 C       2.2347982 *  2.1733139 *  3.4584432    3.2802635    4.0666217  
  28 C       3.2901102    2.1674681 *  1.3871775 *  2.1983697 *  5.3609839  
  29 C       3.2767661    3.2607429    3.9646459    4.0798624    4.5966179  
  30 C       3.7326913    4.1333605    5.0267472    4.9554646    4.3133280  
  31 C       5.3593052    5.9144649    6.3206348    6.1488814    4.6275761  
  32 C       4.9518674    5.5471304    6.2049316    6.0549506    4.5187767  
  33 C       4.5381246    4.8562021    5.3191343    5.3874083    4.7948004  
  34 C       3.5271075    4.3514969    5.6879540    5.2842685    3.4572782  
  35 C       2.4223716 *  3.5066878    5.2526010    4.5619921    2.4150001 *
  36 C       1.4129326 *  2.2365461 *  4.1094289    3.4439168    2.7985953 *
  37 C       2.7982958 *  4.0920379    5.8616997    4.9466801    1.4216935 *
  38 C       4.4855152    5.3674187    6.5075661    6.0977242    3.7333684  
  39 C       4.7813708    5.8555807    7.1335397    6.5075055    3.3016288  
  40 C       4.0832380    5.3247735    6.8868975    6.0291309    2.2132226 *
  41 C       5.6008843    6.3642678    6.9928218    6.5820998    4.2776822  
  42 C       5.5567813    6.5565230    7.5764538    6.9644749    3.8291959  
  43 C       5.4342149    6.5041345    7.6140159    6.8096740    3.3296266  
  44 C       4.6051965    5.8136941    7.2382507    6.2805753    2.3138507 *

                6 C          7 C          8 C          9 C         10 C     

   1 C       1.4116399 *  4.0551884    3.7312758    4.0266808    3.5143202  
   2 C       2.4296230 *  3.1186284    3.1664606    4.8787452    4.0122370  
   3 C       4.0658466    1.3335791 *  2.2060624 *  5.7894295    4.5483552  
   4 C       2.8746555 *  2.1516063 *  2.1481378 *  4.8776564    3.7195627  
   5 C       1.3885726 *  5.4947296    4.6464756    2.2899845 *  2.6897647 *
   6 C       0.0000000    4.3549373    3.5825744    2.7738710 *  2.4135704 *
   7 C       4.3549373    0.0000000    1.3665715 *  5.4228468    4.0967784  
   8 C       3.5825744    1.3665715 *  0.0000000    4.2429212    2.8566756 *
   9 C       2.7738710 *  5.4228468    4.2429212    0.0000000    1.4152527 *
  10 C       2.4135704 *  4.0967784    2.8566756 *  1.4152527 *  0.0000000  
  11 C       1.4602561 *  3.4970421    2.4244107 *  2.4858509 *  1.4503569 *
  12 C       2.4484351 *  2.2661376 *  1.3860153 *  3.7638388    2.4811175 *
  13 C       2.4517698 *  6.1048755    5.0546530    1.3867957 *  2.4557192 *
  14 C       4.6878143    1.3466387 *  2.1321274 *  5.4794191    4.3111640  
  15 C       4.6424686    2.2070822 *  3.0916339    5.9192558    4.9108223  
  16 C       4.6408443    3.3824494    3.9115974    5.6962958    4.9714286  
  17 C       4.5247379    2.2611119 *  2.2037606 *  4.6069249    3.5622623  
  18 C       4.7237300    4.5274063    4.0144508    3.7387810    3.4422034  
  19 C       4.7629617    3.5280864    3.4142641    4.5414774    3.8732182  
  20 C       4.8800513    3.9567787    4.1466664    5.2089794    4.6643887  
  21 C       4.4228657    5.7513006    4.7787649    2.2600869 *  2.7472735 *
  22 C       4.2311655    4.5528688    3.6514131    2.6577418 *  2.3836213 *
  23 C       3.5006990    3.5586940    2.4338221 *  2.4527272 *  1.4641440 *
  24 C       3.8432040    2.2796949 *  1.3753088 *  3.6760610    2.4400580 *
  25 C       3.9842648    6.2499637    5.1344318    1.3972038 *  2.5082458 *
  26 C       3.4938011    3.2063626    3.6994815    5.7162900    4.8796275  
  27 C       3.4507775    4.1243909    4.4124720    5.4684751    4.9271789  
  28 C       4.2638436    2.2123851 *  3.1344696    6.1143592    5.0554517  
  29 C       4.1987832    4.2629097    4.6077944    5.5995586    5.1143390  
  30 C       4.3280297    5.1172147    5.1831727    5.1833361    5.0145225  
  31 C       5.0232137    5.7162049    5.1996757    3.8963867    4.0796200  
  32 C       4.9260396    5.8523762    5.5503128    4.4874483    4.6582516  
  33 C       4.8550360    5.0666917    5.0623823    5.0565622    4.8764711  
  34 C       3.8645381    5.8250607    5.6083507    4.5658960    4.7395007  
  35 C       2.7817585 *  5.5957074    5.2661576    4.1119727    4.2625381  
  36 C       2.4376363 *  4.6967338    4.5726101    4.5478377    4.2765488  
  37 C       2.4405789 *  6.0714060    5.4324124    3.1718016    3.7032918  
  38 C       4.4233550    6.3834874    5.9761504    4.2121230    4.6586287  
  39 C       4.3324503    6.9637440    6.3010063    3.5270631    4.3653618  
  40 C       3.4681433    6.8812418    6.1151714    3.0024348    3.9523850  
  41 C       4.9506587    6.4047016    5.6296363    3.1950685    3.8052671  
  42 C       4.8342226    7.1829343    6.3533469    3.1511913    4.1477651  
  43 C       4.4240497    7.2478794    6.2281063    2.3226468 *  3.6140810  
  44 C       3.6023460    7.1001818    6.1169397    2.2448375 *  3.5197372  

               11 C         12 C         13 C         14 C         15 C     

   1 C       2.4018434 *  2.6868319 *  3.6680957    4.3145412    3.8899387  
   2 C       2.7584308 *  2.2899112 *  4.8053220    3.5732865    3.1088681  
   3 C       3.5642609    2.3069656 *  6.1956836    2.2049481 *  2.2316410 *
   4 C       2.4775920 *  1.3865519 *  5.1372725    3.0401534    3.0744519  
   5 C       2.4495611 *  3.6845970    1.3700966 *  5.6059408    5.5272429  
   6 C       1.4602561 *  2.4484351 *  2.4517698 *  4.6878143    4.6424686  
   7 C       3.4970421    2.2661376 *  6.1048755    1.3466387 *  2.2070822 *
   8 C       2.4244107 *  1.3860153 *  5.0546530    2.1321274 *  3.0916339  
   9 C       2.4858509 *  3.7638388    1.3867957 *  5.4794191    5.9192558  
  10 C       1.4503569 *  2.4811175 *  2.4557192 *  4.3111640    4.9108223  
  11 C       0.0000000    1.4078253 *  2.9008051 *  4.0031933    4.3833770  
  12 C       1.4078253 *  0.0000000    4.2827211    3.0980032    3.5860158  
  13 C       2.9008051 *  4.2827211    0.0000000    6.1673809    6.3237378  
  14 C       4.0031933    3.0980032    6.1673809    0.0000000    1.3960828 *
  15 C       4.3833770    3.5860158    6.3237378    1.3960828 *  0.0000000  
  16 C       4.6577932    4.2559204    5.9656244    2.3646652 *  1.3931348 *
  17 C       3.7287306    3.2318537    5.4670027    1.3851774 *  2.4004576 *
  18 C       4.2666171    4.5666283    4.5567307    3.6817442    4.1554194  
  19 C       4.2766279    4.1577262    5.2808259    2.4525278 *  2.8771352 *
  20 C       4.7772107    4.6439038    5.6261415    2.7837047 *  2.4703366 *
  21 C       4.0300689    4.9043456    3.1809726    5.3189394    5.8438907  
  22 C       3.5380506    4.0646051    3.7600566    4.0903681    4.7911375  
  23 C       2.4473048 *  2.8123933 *  3.6334415    3.4835254    4.3389333  
  24 C       2.7186769 *  2.3449280 *  4.6901948    2.2396535 *  3.3176480  
  25 C       3.7601405    4.9195493    2.1621280 *  6.0522224    6.5104641  
  26 C       3.8402985    3.2658781    5.6607261    3.2651340    2.3170045 *
  27 C       4.1232984    3.9709217    5.2299572    3.8279590    2.7697726 *
  28 C       4.1457857    3.1946103    6.3515212    2.2574767 *  1.4066516 *
  29 C       4.6600742    4.5315054    5.5314648    3.5314348    2.4453374 *
  30 C       4.8816001    5.0971910    5.0406050    4.2860063    3.4839059  
  31 C       4.9291979    5.4950928    4.3935561    4.8479769    5.0170870  
  32 C       5.1699307    5.6840404    4.6228077    4.9203491    4.6953064  
  33 C       5.0780051    5.2799487    5.2154852    4.0299154    3.5617986  
  34 C       4.6864289    5.2585254    4.1301133    5.1897581    4.5409457  
  35 C       3.9056630    4.5886990    3.4236850    5.2840393    4.6672681  
  36 C       3.4987475    3.8143691    4.0473202    4.5679743    3.8230855  
  37 C       3.5848559    4.6353111    2.1956401 *  5.9045215    5.5707846  
  38 C       5.0279974    5.7747057    3.9235319    5.6580496    5.2871408  
  39 C       4.9414765    5.9622407    3.0836641    6.4135900    6.2386397  
  40 C       4.3108303    5.4890599    2.0790625 *  6.5875767    6.4063681  
  41 C       4.8811703    5.7364024    3.6709893    5.7520255    6.0253419  
  42 C       5.0949528    6.1693683    3.1211996    6.6496299    6.7572125  
  43 C       4.6231204    5.8700686    2.2332806 *  6.9609307    7.1957159  
  44 C       4.1527185    5.4834578    1.3629080 *  6.9519191    7.0221364  

               16 C         17 C         18 C         19 C         20 C     

   1 C       3.9060716    4.5064361    5.0534195    4.7449696    4.5080596  
   2 C       3.5608851    4.1507105    5.3348327    4.6934107    4.4634125  
   3 C       3.4323415    3.2808791    5.3212856    4.3183392    4.3756570  
   4 C       3.9191921    3.6876789    5.2899755    4.5922169    4.7118345  
   5 C       5.2082186    5.1835618    4.7011829    5.0843694    5.1667830  
   6 C       4.6408443    4.5247379    4.7237300    4.7629617    4.8800513  
   7 C       3.3824494    2.2611119 *  4.5274063    3.5280864    3.9567787  
   8 C       3.9115974    2.2037606 *  4.0144508    3.4142641    4.1466664  
   9 C       5.6962958    4.6069249    3.7387810    4.5414774    5.2089794  
  10 C       4.9714286    3.5622623    3.4422034    3.8732182    4.6643887  
  11 C       4.6577932    3.7287306    4.2666171    4.2766279    4.7772107  
  12 C       4.2559204    3.2318537    4.5666283    4.1577262    4.6439038  
  13 C       5.9656244    5.4670027    4.5567307    5.2808259    5.6261415  
  14 C       2.3646652 *  1.3851774 *  3.6817442    2.4525278 *  2.7837047 *
  15 C       1.3931348 *  2.4004576 *  4.1554194    2.8771352 *  2.4703366 *
  16 C       0.0000000    2.6950074 *  3.5772083    2.4331317 *  1.4159842 *
  17 C       2.6950074 *  0.0000000    2.4203057 *  1.3988439 *  2.3776361 *
  18 C       3.5772083    2.4203057 *  0.0000000    1.4123256 *  2.3896823 *
  19 C       2.4331317 *  1.3988439 *  1.4123256 *  0.0000000    1.4145180 *
  20 C       1.4159842 *  2.3776361 *  2.3896823 *  1.4145180 *  0.0000000  
  21 C       5.3394878    4.0831422    2.2130583 *  3.5044227    4.3462448  
  22 C       4.4880899    2.8013298 *  1.4138425 *  2.4455374 *  3.5566502  
  23 C       4.4180983    2.4359643 *  2.4160149 *  2.7864979 *  3.8884763  
  24 C       3.7407377    1.4224942 *  2.7812022 *  2.4199626 *  3.4905600  
  25 C       6.0709462    4.9578425    3.4153120    4.5631684    5.2791978  
  26 C       2.6823147 *  4.0596794    5.3270726    4.4421641    3.8709925  
  27 C       2.3858890 *  4.2843544    4.9326491    4.2255507    3.3781736  
  28 C       2.4382667 *  3.3858585    5.1739401    4.0503278    3.6659004  
  29 C       1.4174254 *  3.7867976    4.1586940    3.3774849    2.2384055 *
  30 C       2.2242620 *  4.1045932    3.6433310    3.2785020    2.1618021 *
  31 C       4.1093022    3.7231718    1.4262281 *  2.5226813 *  2.8545712 *
  32 C       3.5294410    4.0985911    2.3618066 *  2.8467528 *  2.4563188 *
  33 C       2.2782660 *  3.5160390    2.6225409 *  2.3620195 *  1.3715031 *
  34 C       3.4396824    4.8374427    3.9465492    4.0201733    3.2373710  
  35 C       3.9010569    5.0803433    4.5652487    4.6087968    4.0260722  
  36 C       3.3843108    4.7118904    4.9014325    4.5790442    3.9686259  
  37 C       4.9230913    5.4759637    4.6565242    5.0488717    4.8132457  
  38 C       4.1520741    4.9664330    3.3920082    3.9213539    3.4493764  
  39 C       5.2643849    5.5806340    3.7973001    4.6603060    4.5301610  
  40 C       5.6279749    5.8929232    4.5095193    5.2548136    5.1734868  
  41 C       5.2247811    4.5656204    2.2890162 *  3.6048597    4.0951993  
  42 C       5.8971270    5.5914763    3.5081213    4.6927121    4.9459797  
  43 C       6.5450226    5.9264312    4.1404502    5.3110623    5.7445045  
  44 C       6.4174479    6.1262921    4.7069805    5.6393662    5.8786347  

               21 C         22 C         23 C         24 C         25 C     

   1 C       5.2905909    4.9249903    4.2460204    4.1952829    5.0933948  
   2 C       5.9662458    5.3075112    4.4462936    3.9668551    5.9663984  
   3 C       6.4371636    5.3843111    4.3798238    3.3020927    6.7661659  
   4 C       5.9489566    5.0923439    3.9853821    3.2751270    6.0171451  
   5 C       3.9387800    4.1800550    3.8463192    4.5585926    3.2566159  
   6 C       4.4228657    4.2311655    3.5006990    3.8432040    3.9842648  
   7 C       5.7513006    4.5528688    3.5586940    2.2796949 *  6.2499637  
   8 C       4.7787649    3.6514131    2.4338221 *  1.3753088 *  5.1344318  
   9 C       2.2600869 *  2.6577418 *  2.4527272 *  3.6760610    1.3972038 *
  10 C       2.7472735 *  2.3836213 *  1.4641440 *  2.4400580 *  2.5082458 *
  11 C       4.0300689    3.5380506    2.4473048 *  2.7186769 *  3.7601405  
  12 C       4.9043456    4.0646051    2.8123933 *  2.3449280 *  4.9195493  
  13 C       3.1809726    3.7600566    3.6334415    4.6901948    2.1621280 *
  14 C       5.3189394    4.0903681    3.4835254    2.2396535 *  6.0522224  
  15 C       5.8438907    4.7911375    4.3389333    3.3176480    6.5104641  
  16 C       5.3394878    4.4880899    4.4180983    3.7407377    6.0709462  
  17 C       4.0831422    2.8013298 *  2.4359643 *  1.4224942 *  4.9578425  
  18 C       2.2130583 *  1.4138425 *  2.4160149 *  2.7812022 *  3.4153120  
  19 C       3.5044227    2.4455374 *  2.7864979 *  2.4199626 *  4.5631684  
  20 C       4.3462448    3.5566502    3.8884763    3.4905600    5.2791978  
  21 C       0.0000000    1.3567501 *  2.4306718 *  3.6428677    1.3486995 *
  22 C       1.3567501 *  0.0000000    1.4042602 *  2.3939886 *  2.4022660 *
  23 C       2.4306718 *  1.4042602 *  0.0000000    1.3823523 *  2.9083184 *
  24 C       3.6428677    2.3939886 *  1.3823523 *  0.0000000    4.2472586  
  25 C       1.3486995 *  2.4022660 *  2.9083184 *  4.2472586    0.0000000  
  26 C       6.3845050    5.6481709    5.0018193    4.3404180    6.6104603  
  27 C       5.9405416    5.4154337    5.0795373    4.6900543    6.1744908  
  28 C       6.5307395    5.5561707    4.8384464    3.8512848    6.9534783  
  29 C       5.5222034    4.9614789    4.9306475    4.5355958    6.0237724  
  30 C       4.8141904    4.5287795    4.8434215    4.7906148    5.3375377  
  31 C       2.1641271 *  2.2535746 *  3.4489026    4.0618838    3.2462824  
  32 C       3.2763429    3.3330021    4.2464621    4.6447451    4.0711842  
  33 C       4.1340899    3.7702257    4.3658765    4.3553374    4.9516699  
  34 C       4.4523097    4.5306892    4.9002232    5.1900668    4.6808503  
  35 C       4.7088529    4.7851725    4.8041404    5.1216794    4.5971195  
  36 C       5.3635848    5.1103090    4.7883349    4.7668930    5.3184936  
  37 C       4.1315184    4.5069720    4.5384904    5.1932745    3.6639947  
  38 C       3.5799927    3.9587932    4.6913372    5.2562215    3.9103971  
  39 C       3.1040177    3.9067026    4.6618189    5.5413919    3.0392793  
  40 C       3.5307743    4.2931311    4.6745927    5.5930979    2.9696555 *
  41 C       1.3549571 *  2.2668771 *  3.4951824    4.4977675    2.1857197 *
  42 C       2.1916577 *  3.3326762    4.3027193    5.3971831    2.1615354 *
  43 C       2.2543338 *  3.4820744    4.1351065    5.3948554    1.3821931 *
  44 C       3.1366739    4.0930663    4.4054882    5.5460797    2.1308016 *

               26 C         27 C         28 C         29 C         30 C     

   1 C       2.2520280 *  2.2347982 *  3.2901102    3.2767661    3.7326913  
   2 C       1.3594632 *  2.1733139 *  2.1674681 *  3.2607429    4.1333605  
   3 C       2.2606562 *  3.4584432    1.3871775 *  3.9646459    5.0267472  
   4 C       2.2336415 *  3.2802635    2.1983697 *  4.0798624    4.9554646  
   5 C       4.5001648    4.0666217    5.3609839    4.5966179    4.3133280  
   6 C       3.4938011    3.4507775    4.2638436    4.1987832    4.3280297  
   7 C       3.2063626    4.1243909    2.2123851 *  4.2629097    5.1172147  
   8 C       3.6994815    4.4124720    3.1344696    4.6077944    5.1831727  
   9 C       5.7162900    5.4684751    6.1143592    5.5995586    5.1833361  
  10 C       4.8796275    4.9271789    5.0554517    5.1143390    5.0145225  
  11 C       3.8402985    4.1232984    4.1457857    4.6600742    4.8816001  
  12 C       3.2658781    3.9709217    3.1946103    4.5315054    5.0971910  
  13 C       5.6607261    5.2299572    6.3515212    5.5314648    5.0406050  
  14 C       3.2651340    3.8279590    2.2574767 *  3.5314348    4.2860063  
  15 C       2.3170045 *  2.7697726 *  1.4066516 *  2.4453374 *  3.4839059  
  16 C       2.6823147 *  2.3858890 *  2.4382667 *  1.4174254 *  2.2242620 *
  17 C       4.0596794    4.2843544    3.3858585    3.7867976    4.1045932  
  18 C       5.3270726    4.9326491    5.1739401    4.1586940    3.6433310  
  19 C       4.4421641    4.2255507    4.0503278    3.3774849    3.2785020  
  20 C       3.8709925    3.3781736    3.6659004    2.2384055 *  2.1618021 *
  21 C       6.3845050    5.9405416    6.5307395    5.5222034    4.8141904  
  22 C       5.6481709    5.4154337    5.5561707    4.9614789    4.5287795  
  23 C       5.0018193    5.0795373    4.8384464    4.9306475    4.8434215  
  24 C       4.3404180    4.6900543    3.8512848    4.5355958    4.7906148  
  25 C       6.6104603    6.1744908    6.9534783    6.0237724    5.3375377  
  26 C       0.0000000    1.3680437 *  1.3736700 *  2.3587359 *  3.5283330  
  27 C       1.3680437 *  0.0000000    2.4545647 *  1.3830221 *  2.3696045 *
  28 C       1.3736700 *  2.4545647 *  0.0000000    2.8494291 *  4.0768528  
  29 C       2.3587359 *  1.3830221 *  2.8494291 *  0.0000000    1.3551601 *
  30 C       3.5283330    2.3696045 *  4.0768528    1.3551601 *  0.0000000  
  31 C       5.8615562    5.1489607    5.9802413    4.2969258    3.3610316  
  32 C       5.2854876    4.3354906    5.5910757    3.3774795    2.2148526 *
  33 C       4.3269276    3.4236057    4.5228345    2.2425977 *  1.3425013 *
  34 C       4.1050257    2.8745357 *  4.9171138    2.4444730 *  1.3755805 *
  35 C       3.5994639    2.5233940 *  4.6558277    2.8159743 *  2.3604320 *
  36 C       2.2916918 *  1.4251603 *  3.4881378    2.3367436 *  2.6280601 *
  37 C       4.5661479    3.7271810    5.5526738    4.0526565    3.4795409  
  38 C       5.2558952    4.1448137    5.8870754    3.5243802    2.2653749 *
  39 C       6.0413065    5.0408368    6.7282846    4.6733305    3.5373855  
  40 C       5.7631743    4.8725276    6.6141502    4.8976697    4.0153025  
  41 C       6.5675751    5.8665784    6.8197835    5.2491351    4.2726529  
  42 C       6.8606784    6.0272285    7.3622801    5.5964320    4.5185792  
  43 C       7.0723413    6.4040904    7.6151568    6.2391520    5.3428184  
  44 C       6.4773063    5.7979477    7.2140814    5.8871010    5.1018354  

               31 C         32 C         33 C         34 C         35 C     

   1 C       5.3593052    4.9518674    4.5381246    3.5271075    2.4223716 *
   2 C       5.9144649    5.5471304    4.8562021    4.3514969    3.5066878  
   3 C       6.3206348    6.2049316    5.3191343    5.6879540    5.2526010  
   4 C       6.1488814    6.0549506    5.3874083    5.2842685    4.5619921  
   5 C       4.6275761    4.5187767    4.7948004    3.4572782    2.4150001 *
   6 C       5.0232137    4.9260396    4.8550360    3.8645381    2.7817585 *
   7 C       5.7162049    5.8523762    5.0666917    5.8250607    5.5957074  
   8 C       5.1996757    5.5503128    5.0623823    5.6083507    5.2661576  
   9 C       3.8963867    4.4874483    5.0565622    4.5658960    4.1119727  
  10 C       4.0796200    4.6582516    4.8764711    4.7395007    4.2625381  
  11 C       4.9291979    5.1699307    5.0780051    4.6864289    3.9056630  
  12 C       5.4950928    5.6840404    5.2799487    5.2585254    4.5886990  
  13 C       4.3935561    4.6228077    5.2154852    4.1301133    3.4236850  
  14 C       4.8479769    4.9203491    4.0299154    5.1897581    5.2840393  
  15 C       5.0170870    4.6953064    3.5617986    4.5409457    4.6672681  
  16 C       4.1093022    3.5294410    2.2782660 *  3.4396824    3.9010569  
  17 C       3.7231718    4.0985911    3.5160390    4.8374427    5.0803433  
  18 C       1.4262281 *  2.3618066 *  2.6225409 *  3.9465492    4.5652487  
  19 C       2.5226813 *  2.8467528 *  2.3620195 *  4.0201733    4.6087968  
  20 C       2.8545712 *  2.4563188 *  1.3715031 *  3.2373710    4.0260722  
  21 C       2.1641271 *  3.2763429    4.1340899    4.4523097    4.7088529  
  22 C       2.2535746 *  3.3330021    3.7702257    4.5306892    4.7851725  
  23 C       3.4489026    4.2464621    4.3658765    4.9002232    4.8041404  
  24 C       4.0618838    4.6447451    4.3553374    5.1900668    5.1216794  
  25 C       3.2462824    4.0711842    4.9516699    4.6808503    4.5971195  
  26 C       5.8615562    5.2854876    4.3269276    4.1050257    3.5994639  
  27 C       5.1489607    4.3354906    3.4236057    2.8745357 *  2.5233940 *
  28 C       5.9802413    5.5910757    4.5228345    4.9171138    4.6558277  
  29 C       4.2969258    3.3774795    2.2425977 *  2.4444730 *  2.8159743 *
  30 C       3.3610316    2.2148526 *  1.3425013 *  1.3755805 *  2.3604320 *
  31 C       0.0000000    1.3809124 *  2.3403216 *  3.3447896    4.2080598  
  32 C       1.3809124 *  0.0000000    1.3548373 *  2.2352063 *  3.3947495  
  33 C       2.3403216 *  1.3548373 *  0.0000000    2.1930835 *  3.3197701  
  34 C       3.3447896    2.2352063 *  2.1930835 *  0.0000000    1.4140044 *
  35 C       4.2080598    3.3947495    3.3197701    1.4140044 *  0.0000000  
  36 C       4.9241022    4.1863625    3.6955765    2.3912749 *  1.4049475 *
  37 C       4.2251608    3.7632547    4.1073600    2.3417108 *  1.3976178 *
  38 C       2.3754297 *  1.4154267 *  2.2436824 *  1.4157778 *  2.4586343 *
  39 C       2.7367773 *  2.4299687 *  3.4869865    2.4616564 *  2.9009099 *
  40 C       3.7722858    3.5176780    4.2978362    2.7829957 *  2.4856991 *
  41 C       1.3713390 *  2.3587843 *  3.5152084    3.8380081    4.4289335  
  42 C       2.4776948 *  2.8799921 *  4.1104147    3.6746774    4.0808637  
  43 C       3.4880635    4.0159265    5.0898698    4.4122027    4.3858283  
  44 C       4.1369797    4.3143924    5.1898879    4.0025802    3.6044633  

               36 C         37 C         38 C         39 C         40 C     

   1 C       1.4129326 *  2.7982958 *  4.4855152    4.7813708    4.0832380  
   2 C       2.2365461 *  4.0920379    5.3674187    5.8555807    5.3247735  
   3 C       4.1094289    5.8616997    6.5075661    7.1335397    6.8868975  
   4 C       3.4439168    4.9466801    6.0977242    6.5075055    6.0291309  
   5 C       2.7985953 *  1.4216935 *  3.7333684    3.3016288    2.2132226 *
   6 C       2.4376363 *  2.4405789 *  4.4233550    4.3324503    3.4681433  
   7 C       4.6967338    6.0714060    6.3834874    6.9637440    6.8812418  
   8 C       4.5726101    5.4324124    5.9761504    6.3010063    6.1151714  
   9 C       4.5478377    3.1718016    4.2121230    3.5270631    3.0024348  
  10 C       4.2765488    3.7032918    4.6586287    4.3653618    3.9523850  
  11 C       3.4987475    3.5848559    5.0279974    4.9414765    4.3108303  
  12 C       3.8143691    4.6353111    5.7747057    5.9622407    5.4890599  
  13 C       4.0473202    2.1956401 *  3.9235319    3.0836641    2.0790625 *
  14 C       4.5679743    5.9045215    5.6580496    6.4135900    6.5875767  
  15 C       3.8230855    5.5707846    5.2871408    6.2386397    6.4063681  
  16 C       3.3843108    4.9230913    4.1520741    5.2643849    5.6279749  
  17 C       4.7118904    5.4759637    4.9664330    5.5806340    5.8929232  
  18 C       4.9014325    4.6565242    3.3920082    3.7973001    4.5095193  
  19 C       4.5790442    5.0488717    3.9213539    4.6603060    5.2548136  
  20 C       3.9686259    4.8132457    3.4493764    4.5301610    5.1734868  
  21 C       5.3635848    4.1315184    3.5799927    3.1040177    3.5307743  
  22 C       5.1103090    4.5069720    3.9587932    3.9067026    4.2931311  
  23 C       4.7883349    4.5384904    4.6913372    4.6618189    4.6745927  
  24 C       4.7668930    5.1932745    5.2562215    5.5413919    5.5930979  
  25 C       5.3184936    3.6639947    3.9103971    3.0392793    2.9696555 *
  26 C       2.2916918 *  4.5661479    5.2558952    6.0413065    5.7631743  
  27 C       1.4251603 *  3.7271810    4.1448137    5.0408368    4.8725276  
  28 C       3.4881378    5.5526738    5.8870754    6.7282846    6.6141502  
  29 C       2.3367436 *  4.0526565    3.5243802    4.6733305    4.8976697  
  30 C       2.6280601 *  3.4795409    2.2653749 *  3.5373855    4.0153025  
  31 C       4.9241022    4.2251608    2.3754297 *  2.7367773 *  3.7722858  
  32 C       4.1863625    3.7632547    1.4154267 *  2.4299687 *  3.5176780  
  33 C       3.6955765    4.1073600    2.2436824 *  3.4869865    4.2978362  
  34 C       2.3912749 *  2.3417108 *  1.4157778 *  2.4616564 *  2.7829957 *
  35 C       1.4049475 *  1.3976178 *  2.4586343 *  2.9009099 *  2.4856991 *
  36 C       0.0000000    2.4306280 *  3.6043637    4.1769429    3.7083961  
  37 C       2.4306280 *  0.0000000    2.6802509 *  2.3881017 *  1.3895731 *
  38 C       3.6043637    2.6802509 *  0.0000000    1.3910078 *  2.3712683 *
  39 C       4.1769429    2.3881017 *  1.3910078 *  0.0000000    1.3954200 *
  40 C       3.7083961    1.3895731 *  2.3712683 *  1.3954200 *  0.0000000  
  41 C       5.3243274    4.0019351    2.6730359 *  2.2781394 *  3.1946917  
  42 C       5.2124106    3.3695872    2.4656549 *  1.4050018 *  2.2174356 *
  43 C       5.4023526    3.3141123    3.4854816    2.2623510 *  2.1940549 *
  44 C       4.6100789    2.3169747 *  3.4435899    2.2523301 *  1.3626590 *

               41 C         42 C         43 C         44 C     

   1 C       5.6008843    5.5567813    5.4342149    4.6051965  
   2 C       6.3642678    6.5565230    6.5041345    5.8136941  
   3 C       6.9928218    7.5764538    7.6140159    7.2382507  
   4 C       6.5820998    6.9644749    6.8096740    6.2805753  
   5 C       4.2776822    3.8291959    3.3296266    2.3138507 *
   6 C       4.9506587    4.8342226    4.4240497    3.6023460  
   7 C       6.4047016    7.1829343    7.2478794    7.1001818  
   8 C       5.6296363    6.3533469    6.2281063    6.1169397  
   9 C       3.1950685    3.1511913    2.3226468 *  2.2448375 *
  10 C       3.8052671    4.1477651    3.6140810    3.5197372  
  11 C       4.8811703    5.0949528    4.6231204    4.1527185  
  12 C       5.7364024    6.1693683    5.8700686    5.4834578  
  13 C       3.6709893    3.1211996    2.2332806 *  1.3629080 *
  14 C       5.7520255    6.6496299    6.9609307    6.9519191  
  15 C       6.0253419    6.7572125    7.1957159    7.0221364  
  16 C       5.2247811    5.8971270    6.5450226    6.4174479  
  17 C       4.5656204    5.5914763    5.9264312    6.1262921  
  18 C       2.2890162 *  3.5081213    4.1404502    4.7069805  
  19 C       3.6048597    4.6927121    5.3110623    5.6393662  
  20 C       4.0951993    4.9459797    5.7445045    5.8786347  
  21 C       1.3549571 *  2.1916577 *  2.2543338 *  3.1366739  
  22 C       2.2668771 *  3.3326762    3.4820744    4.0930663  
  23 C       3.4951824    4.3027193    4.1351065    4.4054882  
  24 C       4.4977675    5.3971831    5.3948554    5.5460797  
  25 C       2.1857197 *  2.1615354 *  1.3821931 *  2.1308016 *
  26 C       6.5675751    6.8606784    7.0723413    6.4773063  
  27 C       5.8665784    6.0272285    6.4040904    5.7979477  
  28 C       6.8197835    7.3622801    7.6151568    7.2140814  
  29 C       5.2491351    5.5964320    6.2391520    5.8871010  
  30 C       4.2726529    4.5185792    5.3428184    5.1018354  
  31 C       1.3713390 *  2.4776948 *  3.4880635    4.1369797  
  32 C       2.3587843 *  2.8799921 *  4.0159265    4.3143924  
  33 C       3.5152084    4.1104147    5.0898698    5.1898879  
  34 C       3.8380081    3.6746774    4.4122027    4.0025802  
  35 C       4.4289335    4.0808637    4.3858283    3.6044633  
  36 C       5.3243274    5.2124106    5.4023526    4.6100789  
  37 C       4.0019351    3.3695872    3.3141123    2.3169747 *
  38 C       2.6730359 *  2.4656549 *  3.4854816    3.4435899  
  39 C       2.2781394 *  1.4050018 *  2.2623510 *  2.2523301 *
  40 C       3.1946917    2.2174356 *  2.1940549 *  1.3626590 *
  41 C       0.0000000    1.3806366 *  2.2705378 *  3.1950861  
  42 C       1.3806366 *  0.0000000    1.3869199 *  2.2086596 *
  43 C       2.2705378 *  1.3869199 *  0.0000000    1.3334835 *
  44 C       3.1950861    2.2086596 *  1.3334835 *  0.0000000  

  * ... LESS THAN  3.000


 TOTAL NUMBER OF BASIS SET SHELLS             =   44
 NUMBER OF CARTESIAN GAUSSIAN BASIS FUNCTIONS =  176
 NUMBER OF ELECTRONS                          =  176
 CHARGE OF MOLECULE                           =    0
 SPIN MULTIPLICITY                            =    1
 NUMBER OF OCCUPIED ORBITALS (ALPHA)          =   88
 NUMBER OF OCCUPIED ORBITALS (BETA )          =   88
 TOTAL NUMBER OF ATOMS                        =   44
 THE NUCLEAR REPULSION ENERGY IS     5257.7411871558

 THE PARAMETERS USED IN THIS CALCULATION ARE DESCRIBED IN:

  C: (PM3): J. J. P. STEWART, J. COMP. CHEM. 10, 209 (1989).                    

 THERE ARE   44 HEAVY AND    0 LIGHT ATOMS,
 YIELDING A TOTAL OF     94600 MOPAC 2E- INTEGRALS.

     $CONTRL OPTIONS
     ---------------
 SCFTYP=RHF          RUNTYP=OPTIMIZE     EXETYP=RUN     
 MPLEVL=       0     CITYP =NONE         CCTYP =NONE         VBTYP =NONE    
 DFTTYP=NONE         TDDFT =NONE    
 MULT  =       1     ICHARG=       0     NZVAR =       0     COORD =UNIQUE  
 PP    =NONE         RELWFN=NONE         LOCAL =NONE         NUMGRD=       F
 ISPHER=      -1     NOSYM =       0     MAXIT =     200     UNITS =ANGS    
 PLTORB=       F     MOLPLT=       F     AIMPAC=       F     FRIEND=        
 NPRINT=       7     IREST =       0     GEOM  =INPUT   
 NORMF =       0     NORMP =       0     ITOL  =      20     ICUT  =       9
 INTTYP=BEST         GRDTYP=BEST         QMTTOL= 1.0E-06

     $SYSTEM OPTIONS
     ---------------
  REPLICATED MEMORY=    10000000 WORDS (ON EVERY NODE).
 DISTRIBUTED MEMDDI=           0 MILLION WORDS IN AGGREGATE,
 MEMDDI DISTRIBUTED OVER   2 PROCESSORS IS           0 WORDS/PROCESSOR.
 TOTAL MEMORY REQUESTED ON EACH PROCESSOR=    10000000 WORDS.
 TIMLIM=      525600.00 MINUTES, OR     365.0 DAYS.
 PARALL= T  BALTYP=  DLB     KDIAG=    0  COREFL= F
 MXSEQ2=     300 MXSEQ3=     150  mem10=         0  mem22=         0

          ----------------
          PROPERTIES INPUT
          ----------------

     MOMENTS            FIELD           POTENTIAL          DENSITY
 IEMOM =       1   IEFLD =       0   IEPOT =       0   IEDEN =       0
 WHERE =COMASS     WHERE =NUCLEI     WHERE =NUCLEI     WHERE =NUCLEI  
 OUTPUT=BOTH       OUTPUT=BOTH       OUTPUT=BOTH       OUTPUT=BOTH    
 IEMINT=       0   IEFINT=       0                     IEDINT=       0
                                                       MORB  =       0
          EXTRAPOLATION IN EFFECT
          SOSCF IN EFFECT
 ORBITAL PRINTING OPTION: NPREO=     1   176     2     1

     -------------------------------
     INTEGRAL TRANSFORMATION OPTIONS
     -------------------------------
     NWORD  =            0
     CUTTRF = 1.0E-09     MPTRAN =       0
     DIRTRF =       T     AOINTS =DUP     

          ----------------------
          INTEGRAL INPUT OPTIONS
          ----------------------
 NOPK  =       1 NORDER=       0 SCHWRZ=       T

     ------------------------------------------
     THE POINT GROUP IS C1 , NAXIS= 0, ORDER= 1
     ------------------------------------------

     DIMENSIONS OF THE SYMMETRY SUBSPACES ARE
 A   =  176

 ..... DONE SETTING UP THE RUN .....
 CPU     0: STEP CPU TIME=     0.02 TOTAL CPU TIME=          0.0 (      0.0 MIN)
 TOTAL WALL CLOCK TIME=          0.0 SECONDS, CPU UTILIZATION IS   104.17%


          -----------------------------
          STATIONARY POINT LOCATION RUN
          -----------------------------

 OBTAINING INITIAL HESSIAN, HESS=GUESS   
 CARTESIAN COORDINATE OPTIMIZATION USING BADGER'S RULE FORCE CONSTANT GUESS

          PARAMETERS CONTROLLING GEOMETRY SEARCH ARE
          METHOD =QA                  UPHESS =BFGS    
          NNEG   =         0          NFRZ   =         0
          NSTEP  =       100          IFOLOW =         1
          HESS   =GUESS               RESTAR =         F
          IHREP  =         0          HSSEND =         F
          NPRT   =         0          NPUN   =         0
          OPTTOL = 1.000E-03          RMIN   = 1.500E-03
          RMAX   = 1.000E-01          RLIM   = 7.000E-02
          DXMAX  = 3.000E-01          PURIFY =         F
          MOVIE  =         F          TRUPD  =         T
          TRMAX  = 5.000E-01          TRMIN  = 5.000E-02
          ITBMAT =         5          STPT   =         F
          STSTEP = 1.000E-02          PROJCT=          T

 BEGINNING GEOMETRY SEARCH POINT NSERCH=   0 ...

 COORDINATES OF ALL ATOMS ARE (ANGS)
   ATOM   CHARGE       X              Y              Z
 ------------------------------------------------------------
 C           6.0   1.1127000000   0.6948000000   2.1901000000
 C           6.0   2.4074000000   0.7203000000   1.7719000000
 C           6.0   3.7801000000   0.8859000000   0.0514000000
 C           6.0   2.8840000000   1.5771000000   0.8403000000
 C           6.0  -1.1891000000   1.3171000000   1.9290000000
 C           6.0   0.1513000000   1.6211000000   1.7314000000
 C           6.0   3.3231000000   1.0284000000  -1.1933000000
 C           6.0   2.2194000000   1.8342000000  -1.1862000000
 C           6.0  -1.8695000000   2.1420000000  -0.0960000000
 C           6.0  -0.5177000000   2.2709000000  -0.4947000000
 C           6.0   0.5391000000   2.3002000000   0.4982000000
 C           6.0   1.8883000000   2.2050000000   0.1076000000
 C           6.0  -2.2343000000   1.8264000000   1.2042000000
 C           6.0   2.8567000000  -0.1430000000  -1.6663000000
 C           6.0   3.0516000000  -1.0976000000  -0.6664000000
 C           6.0   2.0133000000  -2.0080000000  -0.4822000000
 C           6.0   1.6015000000  -0.0028000000  -2.2351000000
 C           6.0  -0.7322000000  -0.6386000000  -2.3216000000
 C           6.0   0.6271000000  -1.0062000000  -2.2128000000
 C           6.0   0.8950000000  -2.0920000000  -1.3467000000
 C           6.0  -2.3905000000   0.7209000000  -1.7744000000
 C           6.0  -1.1047000000   0.7205000000  -2.2074000000
 C           6.0  -0.1380000000   1.6342000000  -1.7573000000
 C           6.0   1.1962000000   1.3318000000  -1.9557000000
 C           6.0  -2.8950000000   1.5473000000  -0.8355000000
 C           6.0   2.8983000000  -0.5321000000   1.5753000000
 C           6.0   1.8519000000  -1.3804000000   1.8140000000
 C           6.0   3.6469000000  -0.4428000000   0.4270000000
 C           6.0   1.4799000000  -2.2534000000   0.8079000000
 C           6.0   0.1726000000  -2.5657000000   0.6350000000
 C           6.0  -1.8320000000  -1.3699000000  -1.7833000000
 C           6.0  -1.4920000000  -2.2743000000  -0.7967000000
 C           6.0  -0.1819000000  -2.5912000000  -0.6596000000
 C           6.0  -0.8975000000  -2.0787000000   1.3491000000
 C           6.0  -0.6095000000  -1.0083000000   2.2270000000
 C           6.0   0.7459000000  -0.6601000000   2.3516000000
 C           6.0  -1.5937000000  -0.0161000000   2.2120000000
 C           6.0  -2.0229000000  -2.0261000000   0.4917000000
 C           6.0  -3.0456000000  -1.0974000000   0.6545000000
 C           6.0  -2.8495000000  -0.1144000000   1.6253000000
 C           6.0  -2.8816000000  -0.5206000000  -1.5433000000
 C           6.0  -3.6674000000  -0.4266000000  -0.4120000000
 C           6.0  -3.8332000000   0.9024000000  -0.0517000000
 C           6.0  -3.3663000000   1.0676000000   1.1864000000

          ********************
          1 ELECTRON INTEGRALS
          ********************

          **************************
          1 AND 2 ELECTRON INTEGRALS
          **************************

 MOPAC ONE- AND TWO-ELECTRON INTEGRALS REQUIRE    125752 WORDS.
 ...... END OF ONE- AND TWO-ELECTRON INTEGRALS......
 CPU     0: STEP CPU TIME=     0.00 TOTAL CPU TIME=          0.0 (      0.0 MIN)
 TOTAL WALL CLOCK TIME=          0.0 SECONDS, CPU UTILIZATION IS   104.17%
 ...... END OF ONE-ELECTRON INTEGRALS ......
 CPU     0: STEP CPU TIME=     0.00 TOTAL CPU TIME=          0.0 (      0.0 MIN)
 TOTAL WALL CLOCK TIME=          0.0 SECONDS, CPU UTILIZATION IS   104.17%

          -------------
          GUESS OPTIONS
          -------------
          GUESS =HUCKEL            NORB  =       0          NORDER=       0
          MIX   =       F          PRTMO =       F          PUNMO =       F
          TOLZ  = 1.0E-08          TOLE  = 1.0E-05
          SYMDEN=       F          PURIFY=       F

 INITIAL GUESS ORBITALS GENERATED BY HUCKEL   ROUTINE.

 SYMMETRIES FOR INITIAL GUESS ORBITALS FOLLOW.   BOTH SET(S).
    88 ORBITALS ARE OCCUPIED (    0 CORE ORBITALS).
     1=A        2=A        3=A        4=A        5=A        6=A        7=A   
     8=A        9=A       10=A       11=A       12=A       13=A       14=A   
    15=A       16=A       17=A       18=A       19=A       20=A       21=A   
    22=A       23=A       24=A       25=A       26=A       27=A       28=A   
    29=A       30=A       31=A       32=A       33=A       34=A       35=A   
    36=A       37=A       38=A       39=A       40=A       41=A       42=A   
    43=A       44=A       45=A       46=A       47=A       48=A       49=A   
    50=A       51=A       52=A       53=A       54=A       55=A       56=A   
    57=A       58=A       59=A       60=A       61=A       62=A       63=A   
    64=A       65=A       66=A       67=A       68=A       69=A       70=A   
    71=A       72=A       73=A       74=A       75=A       76=A       77=A   
    78=A       79=A       80=A       81=A       82=A       83=A       84=A   
    85=A       86=A       87=A       88=A       89=A       90=A       91=A   
    92=A       93=A       94=A       95=A       96=A       97=A       98=A   
 ...... END OF INITIAL ORBITAL SELECTION ......
 CPU     0: STEP CPU TIME=     0.02 TOTAL CPU TIME=          0.0 (      0.0 MIN)
 TOTAL WALL CLOCK TIME=          0.0 SECONDS, CPU UTILIZATION IS   100.81%

          --------------------------
               R-PM3 SCF CALCULATION
          --------------------------

     NUCLEAR ENERGY =      2119.4687289278
     MAXIT =  200     NPUNCH=    2
     EXTRAP=T  DAMP=F  SHIFT=F  RSTRCT=F  DIIS=F  DEM=F  SOSCF=T
     DENSITY MATRIX CONV=  2.00E-05
     SOSCF WILL OPTIMIZE    7744 ORBITAL ROTATIONS, SOGTOL=   0.250
     MEMORY REQUIRED FOR RHF ITERS=    345576 WORDS.

                                                                                   NONZERO     BLOCKS
 ITER EX DEM     TOTAL ENERGY        E CHANGE  DENSITY CHANGE     ORB. GRAD      INTEGRALS    SKIPPED
   1  0  0     -188.4675930204  -188.4675930204   0.171003517   0.000000000              0          0
          ---------------START SECOND ORDER SCF---------------
   2  1  0     -189.7661251199    -1.2985320994   0.056815802   0.013528992              0          0
   3  2  0     -189.8743423655    -0.1082172456   0.047055514   0.011570617              0          0
   4  3  0     -189.8904618734    -0.0161195079   0.017679102   0.010762608              0          0
   5  4  0     -189.8968258245    -0.0063639511   0.014181848   0.002791874              0          0
   6  5  0     -189.8981175311    -0.0012917066   0.012074543   0.002514255              0          0
   7  6  0     -189.8991858058    -0.0010682747   0.025380854   0.001497120              0          0
   8  7  0     -189.9000114236    -0.0008256179   0.003978210   0.000865480              0          0
   9  8  0     -189.9001956982    -0.0001842745   0.018670786   0.000744367              0          0
  10  9  0     -189.9006088274    -0.0004131293   0.008255065   0.000777766              0          0
  11 10  0     -189.9007716892    -0.0001628617   0.023055690   0.000826211              0          0
  12 11  0     -189.9011160817    -0.0003443925   0.011241005   0.000883450              0          0
  13 12  0     -189.9012837557    -0.0001676740   0.010215742   0.000635572              0          0
  14 13  0     -189.9014165337    -0.0001327780   0.003977049   0.000352621              0          0
  15 14  0     -189.9014653285    -0.0000487948   0.004572644   0.000305491              0          0
  16 15  0     -189.9015009772    -0.0000356486   0.002599475   0.000254945              0          0
  17 16  0     -189.9015148569    -0.0000138797   0.003006817   0.000196910              0          0
  18 17  0     -189.9015267984    -0.0000119415   0.003165814   0.000201534              0          0
  19 18  0     -189.9015387754    -0.0000119770   0.004115344   0.000193941              0          0
  20 19  0     -189.9015522068    -0.0000134314   0.005118525   0.000181360              0          0
  21 20  0     -189.9015648678    -0.0000126610   0.004663994   0.000141604              0          0
  22 21  0     -189.9015748464    -0.0000099786   0.003090160   0.000119820              0          0
  23 22  0     -189.9015810688    -0.0000062224   0.001637867   0.000092103              0          0
  24 23  0     -189.9015844276    -0.0000033588   0.001075985   0.000058696              0          0
  25 24  0     -189.9015862263    -0.0000017987   0.000695169   0.000044454              0          0
  26 25  0     -189.9015870610    -0.0000008347   0.000382776   0.000025251              0          0
  27 26  0     -189.9015873665    -0.0000003055   0.000186340   0.000015405              0          0
  28 27  0     -189.9015874650    -0.0000000985   0.000088737   0.000007175              0          0
  29 28  0     -189.9015875009    -0.0000000359   0.000060190   0.000005001              0          0
  30 29  0     -189.9015875148    -0.0000000138   0.000038449   0.000003245              0          0
  31 30  0     -189.9015875195    -0.0000000048   0.000021394   0.000002489              0          0
  32 31  0     -189.9015875211    -0.0000000016   0.000013901   0.000001668              0          0

          -----------------
          DENSITY CONVERGED
          -----------------
     TIME TO FORM FOCK OPERATORS=       0.0 SECONDS (       0.0 SEC/ITER)
     FOCK TIME ON FIRST ITERATION=       0.0, LAST ITERATION=       0.0
     TIME TO SOLVE SCF EQUATIONS=       0.2 SECONDS (       0.0 SEC/ITER)

 FINAL R-PM3 ENERGY IS     -189.9015875211 AFTER  32 ITERATIONS

 HEAT OF FORMATION IS      1213.83078 KCAL/MOL
 

          ------------
          EIGENVECTORS
          ------------

                      1          2          3          4          5
                   -1.9366    -1.8504    -1.6992    -1.6644    -1.5276
                     A          A          A          A          A   
    1  C  1  S    0.137402   0.083217  -0.009353  -0.235519   0.173481
    2  C  1  X    0.006982   0.033912  -0.003074   0.001434  -0.045811
    3  C  1  Y   -0.013360  -0.009995  -0.033717   0.037694   0.012582
    4  C  1  Z   -0.027210  -0.021160   0.012305   0.028667  -0.026620
    5  C  2  S    0.167294   0.178176  -0.050713  -0.192875  -0.000673
    6  C  2  X   -0.006987   0.009148  -0.009682   0.036572  -0.070449
    7  C  2  Y   -0.017157  -0.017477  -0.027426   0.038538   0.025001
    8  C  2  Z   -0.037867  -0.048749   0.029114   0.006386   0.032627
    9  C  3  S    0.175173   0.229738  -0.124620   0.005266  -0.197366
   10  C  3  X   -0.057059  -0.071867   0.042307  -0.001853   0.039418
   11  C  3  Y   -0.017428  -0.023180  -0.007809   0.006517   0.050211
   12  C  3  Z   -0.006459  -0.009452   0.012005  -0.042798   0.011135
   13  C  4  S    0.171643   0.206708  -0.134102  -0.063043  -0.053376
   14  C  4  X   -0.017981  -0.011301   0.015117   0.017962  -0.055113
   15  C  4  Y   -0.040052  -0.051453   0.013504   0.029542   0.051109
   16  C  4  Z   -0.026873  -0.036748   0.034842  -0.036939   0.022867
   17  C  5  S    0.137813  -0.105119  -0.090128  -0.196688   0.181057
   18  C  5  X   -0.010069   0.039519   0.016756  -0.000610   0.055638
   19  C  5  Y   -0.016837   0.013721  -0.011164   0.036072   0.003904
   20  C  5  Z   -0.026161   0.024978   0.028246   0.016103  -0.028285
   21  C  6  S    0.121667   0.005110  -0.076868  -0.170964   0.264270
   22  C  6  X   -0.000424   0.036899   0.005418   0.003949  -0.008405
   23  C  6  Y   -0.018044  -0.002480  -0.008513   0.044111  -0.021223
   24  C  6  Z   -0.016182  -0.001960   0.023626  -0.004622  -0.039501
   25  C  7  S    0.175939   0.221978  -0.137552   0.115634  -0.134229
   26  C  7  X   -0.039653  -0.043523   0.031592  -0.043236  -0.013192
   27  C  7  Y   -0.021205  -0.027507  -0.002759  -0.014427   0.049420
   28  C  7  Z    0.035596   0.049257  -0.030984  -0.013081  -0.049571
   29  C  8  S    0.164168   0.178134  -0.154687   0.134888   0.059247
   30  C  8  X    0.000041   0.017446  -0.000265  -0.014870  -0.076770
   31  C  8  Y   -0.040141  -0.047341   0.025548  -0.042638   0.018585
   32  C  8  Z    0.023603   0.029722  -0.028956  -0.020197  -0.003224
   33  C  9  S    0.149677  -0.157146  -0.151869  -0.012795   0.119399
   34  C  9  X   -0.008550   0.032613   0.007402   0.005959   0.080450
   35  C  9  Y   -0.036957   0.044880   0.029379   0.000817   0.004346
   36  C  9  Z    0.007642  -0.010706  -0.013320  -0.049149   0.000419
   37  C 10  S    0.120199  -0.040916  -0.122414   0.044904   0.275072
   38  C 10  X   -0.002386   0.036674   0.001374   0.006294   0.028327
   39  C 10  Y   -0.023172   0.009996   0.016402  -0.017219  -0.040478
   40  C 10  Z    0.005088  -0.004305  -0.011641  -0.044437   0.012602
   41  C 11  S    0.120803   0.039052  -0.122810  -0.042338   0.275091
   42  C 11  X    0.004095   0.036710  -0.002943   0.005594  -0.026422
   43  C 11  Y   -0.024237  -0.009347   0.017465   0.017054  -0.043012
   44  C 11  Z   -0.005459  -0.004303   0.012336  -0.042947  -0.013073
   45  C 12  S    0.151311   0.150341  -0.152641   0.010645   0.124399
   46  C 12  X    0.008101   0.030306  -0.006191   0.004554  -0.078541
   47  C 12  Y   -0.039808  -0.045379   0.032099  -0.000245   0.001179
   48  C 12  Z   -0.007067  -0.009291   0.012793  -0.047480   0.000298
   49  C 13  S    0.159497  -0.184462  -0.152386  -0.132822   0.054161
   50  C 13  X    0.001004   0.016455   0.000051  -0.014277   0.076832
   51  C 13  Y   -0.039905   0.050022   0.026376   0.041774   0.017337
   52  C 13  Z   -0.023505   0.031113   0.029185  -0.016483   0.004943
   53  C 14  S    0.163042   0.187861  -0.053970   0.151377  -0.115943
   54  C 14  X   -0.018074  -0.009348  -0.008424  -0.040339  -0.035335
   55  C 14  Y    0.020342   0.028546  -0.044005   0.025661   0.002505
   56  C 14  Z    0.038975   0.051115  -0.014956   0.004266  -0.061316
   57  C 15  S    0.153454   0.174604   0.027358   0.044329  -0.178739
   58  C 15  X   -0.020100  -0.012212  -0.033364  -0.013780  -0.006441
   59  C 15  Y    0.034662   0.049357  -0.040186   0.018440  -0.049283
   60  C 15  Z    0.013042   0.016658   0.007514  -0.038029  -0.026291
   61  C 16  S    0.134545   0.099844   0.194689   0.023171  -0.064026
   62  C 16  X   -0.014875   0.009177  -0.069510  -0.008388  -0.030559
   63  C 16  Y    0.025029   0.029769  -0.004136   0.010258  -0.026584
   64  C 16  Z    0.009046   0.007433   0.021293  -0.040488  -0.008227
   65  C 17  S    0.139971   0.111880  -0.009850   0.216281   0.067275
   66  C 17  X    0.003135   0.027116  -0.021575  -0.017986  -0.056284
   67  C 17  Y    0.008407   0.013152  -0.042851   0.013642   0.022474
   68  C 17  Z    0.033275   0.033183  -0.006760   0.034324  -0.004173
   69  C 18  S    0.127562  -0.056602   0.096634   0.241502   0.121867
   70  C 18  X   -0.005208   0.032270   0.006137  -0.004064   0.022634
   71  C 18  Y    0.008409  -0.006558  -0.034650   0.024682   0.031891
   72  C 18  Z    0.025804  -0.014372   0.025729   0.036265   0.011736
   73  C 19  S    0.120998   0.032039   0.121286   0.205032   0.097053
   74  C 19  X   -0.000934   0.027238  -0.016319  -0.013651  -0.023964
   75  C 19  Y    0.009976   0.006742  -0.033282   0.032295   0.029023
   76  C 19  Z    0.024027   0.008616   0.037817   0.023107   0.003654
   77  C 20  S    0.126575   0.040517   0.245347   0.110701   0.027111
   78  C 20  X   -0.006576   0.020374  -0.035212  -0.016016  -0.023395
   79  C 20  Y    0.019392   0.011261   0.005951   0.035326   0.009125
   80  C 20  Z    0.022149   0.008375   0.065112  -0.017389  -0.008644
   81  C 21  S    0.159830  -0.178934  -0.052978   0.184090  -0.000236
   82  C 21  X    0.007457   0.008782   0.009104   0.037969   0.070166
   83  C 21  Y   -0.016168   0.017514  -0.025446  -0.035869   0.024189
   84  C 21  Z    0.036182  -0.049148  -0.028299   0.005493  -0.032414
   85  C 22  S    0.133405  -0.085368  -0.015013   0.232294   0.171700
   86  C 22  X   -0.004869   0.032646   0.002689   0.005754   0.045983
   87  C 22  Y   -0.013047   0.010623  -0.031286  -0.036497   0.012775
   88  C 22  Z    0.027391  -0.022432  -0.012690   0.030103   0.027491
   89  C 23  S    0.120928  -0.008055  -0.078679   0.175895   0.262614
   90  C 23  X    0.001694   0.036192  -0.005953   0.005652   0.008878
   91  C 23  Y   -0.018757   0.003276  -0.006790  -0.045569  -0.022964
   92  C 23  Z    0.016246  -0.002363  -0.023240  -0.003704   0.039705
   93  C 24  S    0.139334   0.098907  -0.092073   0.203772   0.179185
   94  C 24  X    0.010055   0.037973  -0.015582  -0.001489  -0.056435
   95  C 24  Y   -0.017638  -0.013426  -0.010012  -0.038094   0.004910
   96  C 24  Z    0.027028   0.024250  -0.028732   0.017589   0.029010
   97  C 25  S    0.164931  -0.210489  -0.132138   0.056829  -0.061752
   98  C 25  X    0.017525  -0.011707  -0.014499   0.018507   0.053717
   99  C 25  Y   -0.037804   0.051416   0.013551  -0.026645   0.050799
  100  C 25  Z    0.025806  -0.037664  -0.033814  -0.036847  -0.024807
  101  C 26  S    0.159596   0.177163   0.018504  -0.171770  -0.105074
  102  C 26  X   -0.025205  -0.016566  -0.025336   0.053550  -0.029102
  103  C 26  Y    0.022596   0.031589  -0.035067  -0.019485  -0.012390
  104  C 26  Z   -0.031199  -0.041047   0.006673  -0.002797   0.056081
  105  C 27  S    0.136332   0.106485   0.134500  -0.192943   0.003162
  106  C 27  X   -0.007073   0.012457  -0.034985   0.021035  -0.038497
  107  C 27  Y    0.025486   0.027964  -0.014578  -0.049797   0.007082
  108  C 27  Z   -0.025054  -0.021903  -0.034163   0.008621   0.022642
  109  C 28  S    0.164442   0.206947  -0.038380  -0.047350  -0.220003
  110  C 28  X   -0.043742  -0.050357  -0.002927   0.021396   0.039866
  111  C 28  Y    0.027568   0.039991  -0.039405  -0.002161  -0.032807
  112  C 28  Z   -0.010919  -0.016060   0.010989  -0.041641   0.029471
  113  C 29  S    0.132288   0.073179   0.248818  -0.088369  -0.010073
  114  C 29  X   -0.011585   0.013810  -0.057467   0.004864  -0.027387
  115  C 29  Y    0.027243   0.023492   0.021653  -0.031316  -0.006834
  116  C 29  Z   -0.012439  -0.005398  -0.037549  -0.034231   0.012044
  117  C 30  S    0.134862   0.006428   0.333238  -0.052005   0.033522
  118  C 30  X   -0.001538   0.025063  -0.009353  -0.006393  -0.004368
  119  C 30  Y    0.027517   0.002368   0.053101  -0.020277   0.009364
  120  C 30  Z   -0.014692   0.000204  -0.049390  -0.035983   0.004224
  121  C 31  S    0.133004  -0.110160   0.131047   0.187562   0.000973
  122  C 31  X    0.007233   0.012300   0.034867   0.022353   0.037301
  123  C 31  Y    0.023594  -0.027603  -0.017567   0.046477   0.007040
  124  C 31  Z    0.023995  -0.022426   0.033733   0.007278  -0.022413
  125  C 32  S    0.128895  -0.078116   0.245001   0.089686  -0.011144
  126  C 32  X    0.012422   0.012398   0.058340   0.007645   0.026223
  127  C 32  Y    0.026862  -0.024499   0.022120   0.030157  -0.007426
  128  C 32  Z    0.012548  -0.006561   0.037119  -0.031050  -0.010291
  129  C 33  S    0.132908  -0.013365   0.329408   0.062217   0.031051
  130  C 33  X    0.002525   0.024336   0.011373  -0.005071   0.003618
  131  C 33  Y    0.028470  -0.003748   0.056183   0.022106   0.008772
  132  C 33  Z    0.015214  -0.000877   0.050630  -0.032244  -0.002487
  133  C 34  S    0.125609  -0.046724   0.243678  -0.102989   0.033665
  134  C 34  X    0.006983   0.020195   0.035279  -0.016065   0.023715
  135  C 34  Y    0.018859  -0.011825   0.005373  -0.034567   0.010935
  136  C 34  Z   -0.021740   0.009669  -0.064093  -0.019352   0.009299
  137  C 35  S    0.119511  -0.035354   0.123098  -0.198275   0.105579
  138  C 35  X    0.002142   0.027052   0.016808  -0.015682   0.023276
  139  C 35  Y    0.009607  -0.006700  -0.031927  -0.031189   0.028891
  140  C 35  Z   -0.024103   0.009784  -0.037519   0.022644  -0.005541
  141  C 36  S    0.128654   0.052753   0.102133  -0.240877   0.125567
  142  C 36  X    0.006292   0.032056  -0.005395  -0.007100  -0.023734
  143  C 36  Y    0.008604   0.006446  -0.032880  -0.025031   0.030834
  144  C 36  Z   -0.027316  -0.013913  -0.027290   0.038824  -0.013845
  145  C 37  S    0.137341  -0.117040  -0.006823  -0.207071   0.074311
  146  C 37  X   -0.002372   0.027271   0.022615  -0.018280   0.056385
  147  C 37  Y    0.008550  -0.014146  -0.043445  -0.014187   0.021359
  148  C 37  Z   -0.032150   0.034175   0.006548   0.032075   0.002654
  149  C 38  S    0.130945  -0.105023   0.191742  -0.017546  -0.059300
  150  C 38  X    0.015155   0.007795   0.068599  -0.006215   0.030308
  151  C 38  Y    0.024943  -0.031039  -0.002791  -0.010347  -0.025619
  152  C 38  Z   -0.009151   0.008018  -0.021167  -0.038613   0.009651
  153  C 39  S    0.150633  -0.182252   0.026441  -0.041403  -0.176197
  154  C 39  X    0.019470  -0.012485   0.033918  -0.012138   0.008879
  155  C 39  Y    0.033832  -0.051169  -0.041045  -0.018597  -0.049823
  156  C 39  Z   -0.012529   0.016934  -0.006746  -0.036267   0.026878
  157  C 40  S    0.161830  -0.198867  -0.057592  -0.145562  -0.113513
  158  C 40  X    0.016734  -0.008547   0.009151  -0.037402   0.038987
  159  C 40  Y    0.019086  -0.028706  -0.045228  -0.024505   0.003461
  160  C 40  Z   -0.037479   0.052413   0.015814   0.002745   0.061254
  161  C 41  S    0.154433  -0.181592   0.012950   0.160928  -0.106362
  162  C 41  X    0.023434  -0.015647   0.024256   0.051601   0.030125
  163  C 41  Y    0.021467  -0.031745  -0.035856   0.017479  -0.012264
  164  C 41  Z    0.029752  -0.041673  -0.007046  -0.004994  -0.055588
  165  C 42  S    0.158145  -0.211643  -0.043092   0.039721  -0.219515
  166  C 42  X    0.042585  -0.052224   0.001295   0.019362  -0.040357
  167  C 42  Y    0.025611  -0.039435  -0.039196   0.000274  -0.031758
  168  C 42  Z    0.011404  -0.017671  -0.010698  -0.038341  -0.028982
  169  C 43  S    0.162907  -0.227051  -0.121659  -0.009548  -0.194372
  170  C 43  X    0.055803  -0.074994  -0.043117  -0.002980  -0.043909
  171  C 43  Y   -0.017867   0.025313  -0.004637  -0.005892   0.048675
  172  C 43  Z    0.006497  -0.010089  -0.011352  -0.037982  -0.010141
  173  C 44  S    0.166490  -0.223719  -0.136137  -0.109577  -0.132200
  174  C 44  X    0.040390  -0.048033  -0.033539  -0.042315   0.009953
  175  C 44  Y   -0.021930   0.030366   0.000572   0.014177   0.047608
  176  C 44  Z   -0.033366   0.048808   0.030095  -0.010431   0.048933

                      6          7          8          9         10
                   -1.5142    -1.4610    -1.3636    -1.3302    -1.2937
                     A          A          A          A          A   
    1  C  1  S    0.180507   0.035027  -0.124599   0.024151   0.181757
    2  C  1  X    0.063505  -0.005152   0.025252  -0.007048   0.055217
    3  C  1  Y   -0.035115   0.029774   0.073265   0.067540   0.015773
    4  C  1  Z   -0.028133  -0.013822  -0.016560  -0.018146  -0.037166
    5  C  2  S    0.264736   0.049921   0.000714   0.097811   0.168840
    6  C  2  X   -0.018200  -0.000744   0.035358   0.033659  -0.075898
    7  C  2  Y   -0.050683   0.057335   0.065743   0.030498   0.018890
    8  C  2  Z   -0.021351  -0.030788  -0.049755  -0.043394   0.010227
    9  C  3  S    0.013886   0.106513   0.087779   0.118927  -0.189453
   10  C  3  X   -0.004068  -0.045810  -0.035763  -0.018580   0.014559
   11  C  3  Y   -0.010374   0.051118   0.039395  -0.035295   0.073168
   12  C  3  Z    0.072386  -0.006316   0.018683   0.041500   0.044794
   13  C  4  S    0.112555   0.183200   0.176401   0.116658   0.076728
   14  C  4  X   -0.018222  -0.029562  -0.028091   0.009622  -0.089364
   15  C  4  Y   -0.052022   0.002095   0.005253  -0.050407   0.030236
   16  C  4  Z    0.050549  -0.047381  -0.040898   0.024864   0.037267
   17  C  5  S   -0.153494  -0.038292  -0.076361   0.243022  -0.106471
   18  C  5  X    0.055207   0.030479  -0.000966  -0.024973   0.021589
   19  C  5  Y    0.028743  -0.025646   0.076636   0.000074   0.014737
   20  C  5  Z    0.020661   0.026517  -0.038136  -0.033904   0.019727
   21  C  6  S    0.014155   0.036539   0.009422   0.156244   0.068997
   22  C  6  X    0.057934   0.032955   0.015730  -0.038635   0.087089
   23  C  6  Y   -0.010692  -0.006832   0.061439  -0.004572  -0.005391
   24  C  6  Z    0.002190  -0.003251  -0.059905  -0.006537  -0.009931
   25  C  7  S   -0.159058   0.108538  -0.006449  -0.057434  -0.137308
   26  C  7  X    0.055183  -0.027505   0.017038   0.062177  -0.038274
   27  C  7  Y    0.023493   0.046531   0.052738  -0.026290   0.068892
   28  C  7  Z    0.021860   0.042140   0.060098   0.049073  -0.053479
   29  C  8  S   -0.153900   0.168216   0.059516  -0.196329   0.084290
   30  C  8  X   -0.000046   0.013010   0.004493   0.046143  -0.057632
   31  C  8  Y    0.053576  -0.009061   0.042153   0.035092   0.010642
   32  C  8  Z    0.024768   0.055926   0.086935   0.031003   0.012750
   33  C  9  S   -0.006275  -0.195313   0.215365   0.006111  -0.188739
   34  C  9  X    0.001225   0.028856  -0.001066   0.017175  -0.031370
   35  C  9  Y   -0.003487   0.035842  -0.021026   0.005115   0.020146
   36  C  9  Z   -0.059584  -0.009918   0.003952   0.073933   0.022528
   37  C 10  S    0.009848  -0.065269   0.182654  -0.060287  -0.120295
   38  C 10  X   -0.014214   0.053950  -0.007950  -0.022286   0.078989
   39  C 10  Y   -0.008489   0.013041  -0.006204   0.014096   0.022619
   40  C 10  Z   -0.019404   0.000572   0.038239   0.058967   0.014684
   41  C 11  S    0.005987   0.071832   0.197763   0.025420   0.106004
   42  C 11  X    0.014178   0.055967   0.009899  -0.023102   0.079117
   43  C 11  Y   -0.007015  -0.012559  -0.011866  -0.014014  -0.020851
   44  C 11  Z    0.015817  -0.001612  -0.027288   0.063771   0.016078
   45  C 12  S   -0.005455   0.205678   0.221636  -0.042942   0.175137
   46  C 12  X   -0.000780   0.029060  -0.000769   0.016595  -0.029736
   47  C 12  Y   -0.003131  -0.041392  -0.026714  -0.001465  -0.021851
   48  C 12  Z    0.053214  -0.008374   0.009073   0.071446   0.022773
   49  C 13  S   -0.161506  -0.166438   0.090451   0.180850  -0.086934
   50  C 13  X   -0.002549   0.010137  -0.000338   0.048234  -0.060158
   51  C 13  Y    0.055439   0.012452   0.031509  -0.042335  -0.011839
   52  C 13  Z   -0.023105   0.050697  -0.077265   0.042311   0.017515
   53  C 14  S   -0.203766  -0.074158  -0.161843  -0.031385  -0.076697
   54  C 14  X    0.040257   0.025461   0.048411   0.027696  -0.081300
   55  C 14  Y   -0.033884   0.064861  -0.003136  -0.059852  -0.012466
   56  C 14  Z   -0.011575  -0.012433   0.006904   0.027740  -0.077373
   57  C 15  S   -0.074423  -0.200858  -0.075646   0.074024  -0.140633
   58  C 15  X    0.022918   0.057988   0.009159   0.005728  -0.052341
   59  C 15  Y   -0.020754   0.026293  -0.025328   0.016412  -0.074669
   60  C 15  Z    0.051910  -0.017807   0.024014   0.008939  -0.033649
   61  C 16  S   -0.074223  -0.289068   0.065669   0.021714   0.073011
   62  C 16  X    0.021391   0.021578  -0.065846   0.001790  -0.063677
   63  C 16  Y   -0.009177  -0.036994  -0.042626   0.015899  -0.015259
   64  C 16  Z    0.033627  -0.017713   0.027587  -0.057404  -0.030918
   65  C 17  S   -0.186722  -0.089508  -0.238606  -0.056164   0.151522
   66  C 17  X   -0.035191   0.010678   0.013372  -0.033849  -0.044317
   67  C 17  Y   -0.016104   0.050235  -0.001627  -0.091583  -0.019225
   68  C 17  Z   -0.042025  -0.013897  -0.024921  -0.016779   0.010303
   69  C 18  S    0.134403   0.004015  -0.178826   0.221591   0.009205
   70  C 18  X   -0.075412  -0.045779  -0.010836   0.000179   0.082309
   71  C 18  Y    0.029476  -0.019406  -0.039947  -0.055986  -0.051073
   72  C 18  Z    0.022789   0.011921  -0.007517   0.038226  -0.001732
   73  C 19  S   -0.070643  -0.123627  -0.162695   0.193715   0.211604
   74  C 19  X   -0.053542  -0.038638  -0.008438  -0.051298   0.023249
   75  C 19  Y   -0.003518   0.002858  -0.071589  -0.043258  -0.007426
   76  C 19  Z   -0.019937  -0.029143   0.011308   0.032643   0.035953
   77  C 20  S   -0.103363  -0.184439   0.093423   0.173182   0.205718
   78  C 20  X   -0.012391  -0.052431  -0.033161  -0.047759  -0.008878
   79  C 20  Y   -0.014809  -0.028450  -0.057189   0.036235   0.037399
   80  C 20  Z   -0.016332  -0.037049   0.085447  -0.031926  -0.003362
   81  C 21  S    0.271856  -0.051484  -0.015767  -0.087856  -0.170448
   82  C 21  X    0.021649  -0.003948  -0.033195   0.040728  -0.073588
   83  C 21  Y   -0.050214  -0.051996   0.057520  -0.040915  -0.022363
   84  C 21  Z    0.022436  -0.026416   0.041788  -0.050057   0.005624
   85  C 22  S    0.193638  -0.047880  -0.126850   0.000120  -0.175302
   86  C 22  X   -0.060494  -0.006815  -0.025504  -0.004616   0.055761
   87  C 22  Y   -0.036686  -0.025057   0.059149  -0.077364  -0.019787
   88  C 22  Z    0.032129  -0.014173   0.010968  -0.019279  -0.041036
   89  C 23  S    0.026479  -0.043085  -0.021356  -0.155813  -0.071602
   90  C 23  X   -0.058444   0.031151  -0.019259  -0.037477   0.088191
   91  C 23  Y   -0.013560   0.011273   0.059711  -0.006402   0.002020
   92  C 23  Z   -0.002000  -0.001206   0.056267  -0.017970  -0.015510
   93  C 24  S   -0.142296   0.026929  -0.116142  -0.227170   0.110474
   94  C 24  X   -0.056167   0.030337  -0.004522  -0.023439   0.021669
   95  C 24  Y    0.028108   0.028319   0.074457  -0.013681  -0.021061
   96  C 24  Z   -0.020601   0.027526   0.031277  -0.042280   0.016074
   97  C 25  S    0.116190  -0.168223   0.153110  -0.144169  -0.079484
   98  C 25  X    0.020598  -0.028576   0.024003   0.006294  -0.091919
   99  C 25  Y   -0.052089  -0.003684   0.010104   0.046987  -0.031435
  100  C 25  Z   -0.052504  -0.043356   0.044606   0.014261   0.037437
  101  C 26  S    0.242484  -0.106756  -0.065709   0.029119   0.005862
  102  C 26  X   -0.054640   0.028183   0.041007   0.055693  -0.060711
  103  C 26  Y    0.042833   0.050690   0.016611   0.061989   0.018472
  104  C 26  Z   -0.002715   0.022323  -0.018588  -0.040605   0.060594
  105  C 27  S    0.174297  -0.163765  -0.102302  -0.201889   0.032379
  106  C 27  X    0.017729  -0.012162   0.010368   0.067534   0.007933
  107  C 27  Y    0.070229   0.004386  -0.054361   0.012799   0.039362
  108  C 27  Z   -0.002622   0.054460  -0.024904   0.016783   0.011457
  109  C 28  S    0.082697  -0.080487  -0.011710   0.133847  -0.211197
  110  C 28  X   -0.030870   0.037441   0.010469  -0.014265   0.015703
  111  C 28  Y    0.014478   0.058041   0.027694   0.042269  -0.032154
  112  C 28  Z    0.068058   0.006559   0.011278  -0.001600   0.064227
  113  C 29  S    0.005661  -0.222877   0.107528  -0.184660   0.011950
  114  C 29  X    0.029245  -0.025874  -0.053580   0.040282   0.009104
  115  C 29  Y    0.028900  -0.041307  -0.031389  -0.033435  -0.000449
  116  C 29  Z    0.040899   0.043764  -0.064471  -0.054902  -0.034520
  117  C 30  S   -0.085466  -0.008515   0.232094  -0.155084  -0.071009
  118  C 30  X    0.018060  -0.115600  -0.005011  -0.020207   0.060884
  119  C 30  Y   -0.008370  -0.000828   0.006352  -0.040264  -0.020630
[...]
  114  C 29  X   -0.096538   0.111665  -0.015210  -0.023312  -0.117911
  115  C 29  Y    0.119347  -0.224003   0.019597   0.009612   0.152050
  116  C 29  Z   -0.053580   0.098907   0.007837   0.015584  -0.077668
  117  C 30  S   -0.030287  -0.010901   0.002005  -0.034395  -0.032896
  118  C 30  X    0.011645  -0.022958  -0.001058  -0.005761   0.021854
  119  C 30  Y    0.184798   0.037715   0.029344   0.112831   0.050902
  120  C 30  Z   -0.089188  -0.005113  -0.006446  -0.008406   0.007261
  121  C 31  S    0.005385  -0.012159   0.065006  -0.002162  -0.071658
  122  C 31  X    0.008872   0.023733  -0.078404  -0.001800   0.023580
  123  C 31  Y   -0.012396   0.096330  -0.174136   0.085986   0.130316
  124  C 31  Z   -0.003720   0.089426  -0.191991   0.066831   0.151953
  125  C 32  S   -0.002329   0.031021  -0.063159   0.026443   0.059358
  126  C 32  X    0.028629  -0.094514   0.112471  -0.081840  -0.092892
  127  C 32  Y    0.026946  -0.158969   0.207279  -0.090155  -0.083867
  128  C 32  Z    0.010602  -0.059399   0.096576  -0.016041  -0.049532
  129  C 33  S   -0.014309  -0.005075   0.009498   0.035277   0.048150
  130  C 33  X   -0.008401   0.016904  -0.026865   0.010820   0.020278
  131  C 33  Y    0.089879   0.007422  -0.070604  -0.114885  -0.119287
  132  C 33  Z    0.065600   0.000739  -0.010530  -0.023937  -0.032397
  133  C 34  S    0.023335  -0.027275  -0.025470   0.018945   0.067314
  134  C 34  X   -0.054916   0.052994   0.003461  -0.014732  -0.043688
  135  C 34  Y   -0.176011   0.104174   0.007330  -0.042736  -0.093377
  136  C 34  Z    0.155629  -0.125580  -0.026601  -0.002242   0.098702
  137  C 35  S   -0.001218   0.022402   0.032654   0.026015  -0.050596
  138  C 35  X   -0.001016  -0.010859  -0.037165  -0.040300   0.026416
  139  C 35  Y   -0.008179  -0.106502  -0.089194  -0.050945   0.059487
  140  C 35  Z    0.052941   0.182771   0.189866   0.211119  -0.048213
  141  C 36  S   -0.026653  -0.029551  -0.000053   0.017741  -0.031490
  142  C 36  X   -0.034679   0.017709   0.014283   0.007493  -0.050413
  143  C 36  Y    0.053075  -0.009018   0.022427   0.063884   0.023982
  144  C 36  Z   -0.187599  -0.192345  -0.053302  -0.040856  -0.057961
  145  C 37  S    0.004214   0.044927   0.001138  -0.043891   0.004210
  146  C 37  X    0.003233  -0.048907   0.005972   0.038521   0.028998
  147  C 37  Y   -0.003111   0.021726   0.023848   0.013042   0.007875
  148  C 37  Z   -0.028324   0.162280  -0.114806  -0.165623   0.048786
  149  C 38  S    0.010145  -0.004719  -0.002128  -0.041809  -0.027574
  150  C 38  X   -0.076105   0.018593   0.104194   0.074414   0.003414
  151  C 38  Y   -0.121736   0.015246   0.106037   0.146993   0.115281
  152  C 38  Z    0.025748   0.039831  -0.068921  -0.015526   0.005659
  153  C 39  S   -0.008373   0.006922   0.059003  -0.007593  -0.072187
  154  C 39  X    0.102373   0.032636  -0.200590   0.001686   0.085493
  155  C 39  Y    0.103905   0.022742  -0.158983  -0.041703   0.012032
  156  C 39  Z   -0.050592   0.038965   0.077615   0.041105  -0.014983
  157  C 40  S   -0.015390  -0.041248  -0.014567  -0.004414   0.058309
  158  C 40  X    0.087523   0.090085  -0.011975  -0.004067  -0.085968
  159  C 40  Y    0.024034   0.064599   0.027343  -0.029585  -0.043789
  160  C 40  Z   -0.115077  -0.164301   0.023424   0.030402   0.103645
  161  C 41  S    0.013045  -0.040541   0.000981  -0.074792  -0.026296
  162  C 41  X   -0.034232   0.111211   0.028001   0.125431   0.048417
  163  C 41  Y   -0.015158   0.034616   0.057089   0.028086   0.005499
  164  C 41  Z   -0.045452   0.090871   0.067981   0.106208   0.002666
  165  C 42  S   -0.013888   0.032749  -0.033710   0.065973   0.087644
  166  C 42  X    0.013259  -0.178396   0.075809  -0.168154  -0.158127
  167  C 42  Y   -0.015495  -0.106998   0.063464  -0.080545  -0.048105
  168  C 42  Z    0.008777  -0.048977  -0.014896  -0.040362  -0.002710
  169  C 43  S    0.022533   0.020354  -0.008479  -0.021688  -0.067682
  170  C 43  X   -0.111971  -0.089984   0.043105   0.035780   0.155913
  171  C 43  Y    0.039390   0.060633  -0.029717   0.016549  -0.038122
  172  C 43  Z   -0.040817  -0.018653   0.027751  -0.014050   0.060651
  173  C 44  S    0.028595   0.002510  -0.018708   0.053308  -0.035654
  174  C 44  X   -0.102022  -0.017674   0.053044  -0.041032   0.063346
  175  C 44  Y    0.037204  -0.021240  -0.034656   0.043145  -0.037042
  176  C 44  Z    0.105430   0.028112  -0.063931   0.041460  -0.101380

                     96         97         98
                   -0.0504    -0.0469    -0.0416
                     A          A          A   
    1  C  1  S   -0.061709  -0.036955  -0.038815
    2  C  1  X   -0.043315  -0.032421   0.037606
    3  C  1  Y   -0.055110   0.000003  -0.012326
    4  C  1  Z   -0.195606  -0.056970  -0.141665
    5  C  2  S    0.080349   0.061099  -0.039309
    6  C  2  X    0.107546   0.035931  -0.027570
    7  C  2  Y    0.028200   0.063218   0.007245
    8  C  2  Z    0.216445   0.093256   0.013908
    9  C  3  S   -0.079012   0.161167  -0.166260
   10  C  3  X   -0.135792   0.226545  -0.236025
   11  C  3  Y   -0.042601   0.069127  -0.082306
   12  C  3  Z   -0.014924   0.034689   0.013319
   13  C  4  S    0.022146  -0.101901   0.086837
   14  C  4  X    0.031251  -0.124697   0.083864
   15  C  4  Y    0.024591  -0.060538   0.009115
   16  C  4  Z   -0.061585  -0.039636  -0.025743
   17  C  5  S    0.003798   0.045777   0.056409
   18  C  5  X    0.010698   0.002373  -0.009698
   19  C  5  Y    0.018799   0.086443   0.043577
   20  C  5  Z    0.072272   0.201585   0.176081
   21  C  6  S    0.001803  -0.044900   0.002594
   22  C  6  X    0.020617  -0.001174   0.044792
   23  C  6  Y   -0.085829  -0.192699  -0.033402
   24  C  6  Z   -0.008550  -0.146376  -0.023726
   25  C  7  S    0.044642  -0.123174   0.188042
   26  C  7  X    0.094756  -0.125765   0.226511
   27  C  7  Y    0.015154  -0.080286   0.118274
   28  C  7  Z   -0.045339   0.060236  -0.180281
   29  C  8  S   -0.009763   0.090377  -0.086207
   30  C  8  X   -0.006439   0.054309  -0.106089
   31  C  8  Y    0.048224   0.066171  -0.040377
   32  C  8  Z    0.019541  -0.041388   0.040616
   33  C  9  S   -0.040622   0.008193  -0.034346
   34  C  9  X    0.014671  -0.031654   0.036929
   35  C  9  Y   -0.208096  -0.127054  -0.128734
   36  C  9  Z    0.021743  -0.025954   0.023929
   37  C 10  S    0.009767   0.036020   0.001621
   38  C 10  X   -0.030970   0.004907  -0.033385
   39  C 10  Y    0.087896   0.180881   0.003742
   40  C 10  Z   -0.040596  -0.084120   0.024089
   41  C 11  S    0.059279   0.035506  -0.003658
   42  C 11  X    0.008820   0.003926  -0.007853
   43  C 11  Y    0.245206   0.119104  -0.003519
   44  C 11  Z    0.052225   0.077058  -0.005553
   45  C 12  S   -0.058107  -0.029061   0.001161
   46  C 12  X   -0.031495   0.026678  -0.010832
   47  C 12  Y   -0.275088  -0.121382   0.047899
   48  C 12  Z   -0.038336   0.051612  -0.053930
   49  C 13  S    0.016831   0.041377   0.015846
   50  C 13  X    0.008099  -0.047785  -0.041538
   51  C 13  Y    0.098872   0.030017   0.058055
   52  C 13  Z    0.019638   0.015595   0.010385
   53  C 14  S    0.013351   0.011552  -0.137358
   54  C 14  X   -0.004558  -0.025625  -0.135642
   55  C 14  Y   -0.021490   0.075575  -0.022166
   56  C 14  Z   -0.051539   0.098557   0.127985
   57  C 15  S   -0.016604   0.030925   0.011177
   58  C 15  X    0.060233   0.048409  -0.062625
   59  C 15  Y   -0.114495   0.027877   0.096757
   60  C 15  Z   -0.062705   0.028276  -0.042123
   61  C 16  S   -0.049521   0.040587   0.035349
   62  C 16  X   -0.084465   0.051020   0.064985
   63  C 16  Y    0.175194  -0.146840  -0.143935
   64  C 16  Z    0.017731  -0.000910  -0.066144
   65  C 17  S   -0.065861   0.033681   0.080162
   66  C 17  X   -0.016866   0.029609   0.053794
   67  C 17  Y   -0.029017  -0.007454   0.007585
   68  C 17  Z    0.193962  -0.159961  -0.124810
   69  C 18  S    0.049898  -0.034227  -0.023557
   70  C 18  X   -0.012272   0.019730  -0.003467
   71  C 18  Y   -0.006011  -0.009657   0.029421
   72  C 18  Z   -0.135067   0.006931   0.132203
   73  C 19  S    0.000693  -0.013038   0.001053
   74  C 19  X    0.044301  -0.022383  -0.028005
   75  C 19  Y   -0.005980   0.032640  -0.064786
   76  C 19  Z   -0.054416   0.102335  -0.086784
   77  C 20  S   -0.006211   0.005475  -0.005755
   78  C 20  X    0.019287  -0.020989  -0.074862
   79  C 20  Y    0.038896   0.005133   0.031035
   80  C 20  Z    0.044539  -0.011918   0.054462
   81  C 21  S    0.038905   0.070884   0.020178
   82  C 21  X   -0.052760  -0.055193  -0.042409
   83  C 21  Y    0.065019   0.039696  -0.009882
   84  C 21  Z   -0.178411  -0.066237  -0.070779
   85  C 22  S   -0.067344   0.012201  -0.006725
   86  C 22  X   -0.008263   0.048241   0.014127
   87  C 22  Y   -0.061475   0.003525  -0.035874
   88  C 22  Z    0.210648  -0.036234   0.050912
   89  C 23  S   -0.009745  -0.032392   0.017930
   90  C 23  X   -0.048897   0.052001  -0.013795
   91  C 23  Y   -0.107536  -0.183199   0.077919
   92  C 23  Z    0.070213   0.134929  -0.071295
   93  C 24  S    0.075974  -0.036681  -0.014122
   94  C 24  X    0.002995  -0.030505   0.007931
   95  C 24  Y    0.057392   0.033566  -0.006006
   96  C 24  Z   -0.180363  -0.035183   0.097897
   97  C 25  S    0.009144  -0.103604   0.036803
   98  C 25  X   -0.016538   0.108219  -0.061081
   99  C 25  Y    0.043472  -0.102429   0.089009
  100  C 25  Z    0.026391   0.061903  -0.024539
  101  C 26  S   -0.094497   0.046982   0.039869
  102  C 26  X   -0.126818   0.071680   0.091082
  103  C 26  Y    0.015768  -0.041256  -0.048458
  104  C 26  Z   -0.124170   0.012571   0.125421
  105  C 27  S   -0.013726   0.000863  -0.062637
  106  C 27  X    0.045995  -0.021613  -0.053418
  107  C 27  Y    0.050256  -0.036979   0.102963
  108  C 27  Z   -0.027278  -0.031102  -0.195731
  109  C 28  S    0.089578  -0.122196   0.045831
  110  C 28  X    0.095460  -0.159969   0.049288
  111  C 28  Y   -0.014066   0.006213   0.070024
  112  C 28  Z    0.034316  -0.004900  -0.048875
  113  C 29  S    0.040079  -0.067145   0.001627
  114  C 29  X    0.076944  -0.094620   0.014360
  115  C 29  Y   -0.086697   0.193410   0.059744
  116  C 29  Z    0.014790  -0.046360   0.028553
  117  C 30  S    0.015330   0.051634   0.068036
  118  C 30  X   -0.008381   0.017419  -0.018618
  119  C 30  Y   -0.056775  -0.146159  -0.151534
  120  C 30  Z    0.046629   0.051469   0.044952
  121  C 31  S   -0.017084   0.050030   0.005730
  122  C 31  X    0.012961  -0.035634  -0.051616
  123  C 31  Y    0.010257  -0.081131  -0.007465
  124  C 31  Z    0.071339  -0.112387  -0.079146
  125  C 32  S   -0.031245  -0.034044   0.053030
  126  C 32  X    0.042050   0.055293  -0.071385
  127  C 32  Y    0.097859   0.063038  -0.151399
  128  C 32  Z    0.007095   0.051700  -0.021491
  129  C 33  S    0.031058  -0.016123  -0.063450
  130  C 33  X    0.003513  -0.023085   0.002140
  131  C 33  Y   -0.094520   0.003928   0.141745
  132  C 33  Z   -0.064632  -0.009843   0.018880
  133  C 34  S   -0.053698  -0.003380  -0.025184
  134  C 34  X    0.071393  -0.032300  -0.031207
  135  C 34  Y    0.131673   0.021080   0.060408
  136  C 34  Z   -0.139691   0.023497  -0.050793
  137  C 35  S    0.028931  -0.029733   0.011060
  138  C 35  X   -0.026502  -0.018557  -0.048539
  139  C 35  Y   -0.068997   0.070554  -0.003244
  140  C 35  Z    0.068729  -0.163313   0.019677
  141  C 36  S    0.029253   0.045322   0.072106
  142  C 36  X    0.040254   0.001271   0.042586
  143  C 36  Y   -0.019681  -0.041349  -0.041892
  144  C 36  Z    0.105808   0.216526   0.214665
  145  C 37  S    0.011933  -0.042462  -0.070621
  146  C 37  X   -0.038570   0.014904   0.047767
  147  C 37  Y   -0.007425  -0.035693  -0.011599
  148  C 37  Z   -0.060483  -0.047223  -0.207972
  149  C 38  S    0.028455  -0.010082  -0.046515
  150  C 38  X   -0.011754   0.031696   0.078238
  151  C 38  Y   -0.101872   0.027416   0.170546
  152  C 38  Z    0.026101  -0.045918  -0.026821
  153  C 39  S    0.045342   0.019061  -0.021184
  154  C 39  X   -0.088201  -0.084104  -0.053879
  155  C 39  Y   -0.022591  -0.065178  -0.112451
  156  C 39  Z    0.042773  -0.007980   0.033706
  157  C 40  S   -0.070150   0.053591   0.048522
  158  C 40  X    0.114926  -0.017863  -0.043494
  159  C 40  Y    0.056488   0.027201  -0.016905
  160  C 40  Z   -0.131474   0.016905   0.088723
  161  C 41  S    0.025947  -0.027965  -0.061866
  162  C 41  X   -0.068844   0.035859   0.101774
  163  C 41  Y   -0.047720   0.005066   0.039556
  164  C 41  Z   -0.028212   0.088525   0.096508
  165  C 42  S   -0.043447  -0.060997   0.063897
  166  C 42  X    0.118027   0.091897  -0.060226
  167  C 42  Y    0.079210  -0.022724  -0.018480
  168  C 42  Z    0.017929  -0.027663  -0.026859
  169  C 43  S   -0.013294   0.127640  -0.038746
  170  C 43  X    0.017580  -0.200672   0.074772
  171  C 43  Y   -0.029912   0.060765  -0.022934
  172  C 43  Z   -0.028034  -0.020034   0.039518
  173  C 44  S    0.045908  -0.097470  -0.025504
  174  C 44  X   -0.118913   0.088948   0.034503
  175  C 44  Y    0.018667  -0.058398  -0.036830
  176  C 44  Z    0.103135  -0.038805  -0.064001

     ----------------------------------------------------------------
     PROPERTY VALUES FOR THE RHF   SELF-CONSISTENT FIELD WAVEFUNCTION
     ----------------------------------------------------------------

                    -------------
                    MOPAC CHARGES
                    -------------
         ATOM NO.   TYPE          CHARGE        ATOM  ELECTRON DENSITY
           1         C             -0.0093          4.0093
           2         C              0.0020          3.9980
           3         C              0.0014          3.9986
           4         C              0.0072          3.9928
           5         C              0.0058          3.9942
           6         C              0.0085          3.9915
           7         C             -0.0018          4.0018
           8         C             -0.0159          4.0159
           9         C              0.0366          3.9634
          10         C              0.0104          3.9896
          11         C              0.0017          3.9983
          12         C              0.0127          3.9873
          13         C             -0.0256          4.0256
          14         C             -0.0303          4.0303
          15         C              0.0380          3.9620
          16         C             -0.0148          4.0148
          17         C              0.0234          3.9766
          18         C             -0.0089          4.0089
          19         C              0.0113          3.9887
          20         C              0.0169          3.9831
          21         C             -0.0353          4.0353
          22         C              0.0330          3.9670
          23         C              0.0042          3.9958
          24         C             -0.0119          4.0119
          25         C              0.0016          3.9984
          26         C             -0.0053          4.0053
          27         C             -0.0058          4.0058
          28         C             -0.0023          4.0023
          29         C              0.0051          3.9949
          30         C             -0.0177          4.0177
          31         C              0.0138          3.9862
          32         C             -0.0081          4.0081
          33         C             -0.0342          4.0342
          34         C              0.0027          3.9973
          35         C              0.0377          3.9623
          36         C              0.0035          3.9965
          37         C             -0.0520          4.0520
          38         C              0.0023          3.9977
          39         C              0.0084          3.9916
          40         C              0.0764          3.9236
          41         C             -0.0472          4.0472
          42         C              0.0617          3.9383
          43         C             -0.0569          4.0569
          44         C             -0.0430          4.0430

          ---------------------
          ELECTROSTATIC MOMENTS
          ---------------------

 POINT   1           X           Y           Z (ANGS)      CHARGE
                 0.000000    0.000000    0.000000        0.00 (A.U.)
         DX          DY          DZ         /D/  (DEBYE)
     0.798413   -0.083570    0.285050    0.851880
 ...... END OF PROPERTY EVALUATION ......
 CPU     0: STEP CPU TIME=     0.03 TOTAL CPU TIME=          1.0 (      0.0 MIN)
 TOTAL WALL CLOCK TIME=          1.3 SECONDS, CPU UTILIZATION IS    76.72%
  $VIB   
          IVIB=   0 IATOM=   0 ICOORD=   0 E=     -190.3248733957
  1.161785803E-04-1.740138610E-04 4.565337239E-04 7.747991669E-05 1.582587788E-05
 -2.260983013E-04 1.343263571E-04 3.858769583E-05 4.108748915E-05 9.062490446E-05
 -9.964063136E-05-7.055452952E-06-3.396247097E-06 5.878790841E-04 2.733340157E-04
 -4.697088213E-04-5.224474597E-04-4.455154216E-04-2.292371653E-05-2.491970201E-06
  6.063404831E-05-3.968612831E-06 9.076790400E-05 5.001319876E-04 2.211893159E-04
 -7.197990832E-05-9.877565595E-05 1.454982649E-04-3.531034948E-05 2.140369413E-04
 -3.164584617E-04 3.486660830E-04 1.309544292E-06-4.139280942E-05-1.607393090E-04
 -4.648984144E-04 1.449204784E-04-7.787976738E-05-1.108396027E-04 1.734545216E-04
  3.554637396E-05-1.417500552E-04-1.139176124E-04 1.250086200E-04 1.109364394E-04
  3.404204397E-05-3.408390319E-05 1.514512243E-04-3.227045226E-04 2.626051118E-05
  3.413356219E-04 8.991569653E-05 2.689643154E-04-8.085676453E-05-5.131918199E-05
 -2.873734363E-05-8.591988965E-05-3.386141770E-05 1.680020157E-05 1.188805928E-04
 -1.293552088E-04 4.675587196E-05 1.671345144E-04 2.139242062E-04-1.773505990E-04
 -8.950983358E-05 1.834403604E-04-2.138556559E-04 4.314623445E-05-1.595745053E-04
  7.465252967E-05-3.746780905E-04 6.297577206E-05-3.522526235E-05 9.151673469E-05
  5.830069972E-06-1.589383752E-04 6.505553126E-05 1.509335009E-04-1.356143126E-06
 -1.586187034E-04 1.425291123E-05-1.180182849E-04-7.267039132E-05 1.440254748E-04
  1.061942614E-04 1.573740186E-05-9.968336388E-05 8.827142771E-06-1.050416910E-04
 -1.134735706E-04 1.483197945E-06 3.695767873E-04-1.832155493E-04 1.143174914E-04
  1.389623455E-05 1.246304769E-04 1.419805511E-04 4.168902977E-05-5.930652596E-05
 -7.208260594E-06-1.351437560E-04-2.963348925E-04 1.609268913E-04 2.342206068E-04
 -1.116332407E-04 3.211565827E-04-2.426448299E-04 3.850718015E-04-4.388629464E-04
 -3.425153021E-04 4.715349241E-05-3.141711585E-05-1.380668832E-04 9.616727088E-05
  2.212681317E-04-7.900925747E-05-1.356909051E-04-1.411042959E-04 5.960055752E-05
  2.037548980E-04-1.104644098E-04-5.199207314E-05-5.091082693E-05-1.038887460E-06
  1.750312502E-04-6.515372418E-05-3.707991062E-05 1.284927731E-04-7.580659804E-05
 -7.262466855E-05-2.231689145E-04
  7.984125550E-01-8.356975860E-02 2.850496690E-01
 ......END OF GEOMETRY SEARCH......
 CPU     0: STEP CPU TIME=     0.02 TOTAL CPU TIME=          1.0 (      0.0 MIN)
 TOTAL WALL CLOCK TIME=          1.3 SECONDS, CPU UTILIZATION IS    76.98%
                580000  WORDS OF DYNAMIC MEMORY USED
 EXECUTION OF GAMESS TERMINATED NORMALLY 21:10:47 27-MAY-2023    
 DDI: 263640 bytes (0.3 MB / 0 MWords) used by master data server.

 ----------------------------------------
 CPU timing information for all processes
 ========================================
 0: 0.781250 + 0.265625 = 1.046875
 1: 0.781250 + 0.156250 = 0.937500
 2: 0.453125 + 0.531250 = 0.984375
 3: 0.578125 + 0.468750 = 1.046875
 ----------------------------------------
           Disk usage (in bytes)       
 ========================================
 ----------------------------------------
            Local date and time          
 ========================================
27.05.2023 - 21:10:48,04                          
