          *******************************************************
          *                                                     *
          *          GAMESS VERSION = 30 SEP 2022 (R2)          *
          *                                                     *
          *              doi.org/10.1063/5.0005188              *
          *                                                     *
          *************** 64 BIT WINDOWS VERSION ****************

  GAMESS HAS BEEN MADE POSSIBLE WITH IMPORTANT CONTRIBUTIONS FROM
  THE FOLLOWING INDIVIDUALS (IN ALPHABETICAL ORDER):

     IVANA ADAMOVIC, CHRISTINE AIKENS, TOMOKO AKAMA,
     MELISA ALKAN, YURI ALEXEEV, YURIKO AOKI, POOJA ARORA,
     TOSHIO ASADA, ANDREY ASADCHEV, KIM K. BALDRIDGE,
     PRADIPTA BANDYOPADHYAY, TAYLOR A. BARNES, MARIA BARYSZ,
     ROB BELL, JONATHAN BENTZ, COLLEEN BERTONI,
     JERRY A. BOATZ, BRETT BODE, KURT BRORSEN, KURT R. BRORSEN,
     LAIMUTIS BYTAUTAS, CALEB CARLIN, LAURA CARRINGTON,
     GALINA CHABAN, BENOIT CHAMPAGNE, WEI CHEN, MAHITO CHIBA,
     DAN CHIPMAN, CHEOL HO CHOI, TANNER CULPITT,
     DIPAYAN DATTA, PAUL DAY, ALBERT DEFUSCO,
     NUWAN DESILVA, J. EMILIANO DEUSTUA,
     TIM DUDLEY, MICHEL DUPUIS, STEVEN T. ELBERT,
     DMITRI FEDOROV, KATHERINE FERRERAS, MICHAEL FILATOV,
     ALEX FINDLATER,GRAHAM FLETCHER, MARK FREITAG,
     CHRISTIAN FRIEDL, DAVID GARMER, 
     IGOR S. GERASIMOV, KURT GLAESEMANN,
     MARK S. GORDON, JEFFREY GOUR, FENG LONG GU,
     EMILIE B. GUIDEZ, ANASTASIA GUNINA, SHARON HAMMES-SCHIFFER,
     MASATAKE HARUTA, KIMIHIKO HIRAO, YASUHIRO IKABATA,
     TZVETELIN IORDANOV, STEPHAN IRLE, KAZUYA ISHIMURA,
     JOE IVANIC, FRANK JENSEN, JAN H. JENSEN, VISVALDAS KAIRYS,
     MUNEAKI KAMIYA, MICHIO KATOUDA, NAOAKI KAWAKAMI, DAN KEMP,
     BERNARD KIRTMAN, KAZUO KITAURA, MARIUSZ KLOBUKOWSKI,
     MASATO KOBAYASHI, KONSTANTIN KOMAROV, PRAKASHAN KORAMBATH,
     JACEK KORCHOWIEC, SHIRO KOSEKI, KAROL KOWALSKI,
     JIMMY KROMANN, STANISLAW KUCHARSKI, HENRY KURTZ,
     SAROM SOK LEANG, SEUNGHOON LEE, HUI LI, SHUHUA LI, WEI LI,
     JESSE LUTZ, ALEKSANDR O. LYKHIN, MARCIN MAKOWSKI,
     JOANI MATO, NIKITA MATSUNAGA, BENEDETTA MENNUCCI,
     GRANT MERRILL, NORIYUKI MINEZAWA, VLADIMIR MIRONOV,
     EISAKU MIYOSHI, JOHN A. MONTGOMERY JR., HIROTOSHI MORI,
     JONATHAN MULLIN, MONIKA MUSIAL, SHIGERU NAGASE,
     TAKESHI NAGATA, HIROMI NAKAI, TAKAHITO NAKAJIMA,
     YUYA NAKAJIMA, HARUYUKI NAKANO, HIROYA NAKATA, SEAN NEDD,
     HEATHER NETZLOFF, KIET A. NGUYEN, YOSHIO NISHIMOTO,
     BOSILJKA NJEGIC, RYAN OLSON, MIKE PAK, ROBERTO PEVERATI,
     BUU PHAM, PIOTR PIECUCH, ANNA POMOGAEVA, DAVID POOLE,
     SPENCER PRUITT, OLIVIER QUINET, LUKE ROSKOP,
     KLAUS RUEDENBERG, ANDREW SAND, TOSAPORN SATTASATHUCHANA,
     NOZOMI SAWADA, MICHAEL W. SCHMIDT, PATRICK E. SCHNEIDER,
     JUNJI SEINO, PRACHI SHARMA, JUN SHEN, JIM SHOEMAKER,
     YINAN SHU, DEJUN SI, JONATHAN SKONE, LYUDMILA SLIPCHENKO,
     TONY SMITH, JIE SONG, MARK SPACKMAN, CASPER STEINMANN,
     WALT STEVENS, PEIFENG SU, SHUJUN SU, CHET SWALINA,
     CHINAMI TAKASHIMA, TETSUYA TAKETSUGU, ZHEN TAO,
     NANDUN THELLAMUREGE, SEIKEN TOKURA, JACOPO TOMASI,
     TSUGUKI TOUMA, TAKAO TSUNEDA, HIROAKI UMEDA,
     JORGE LUIS GALVEZ VALLEJO, YALI WANG, SIMON WEBB,
     AARON WEST, THERESA L. WINDUS, MARTA WLOCH,
     PENG XU, KIYOSHI YAGI, SUSUMU YANAGISAWA, YANG YANG,
     SOOHAENG YOO, TAKESHI YOSHIKAWA, FEDERICO ZAHARIEV,
     TOBY ZENG

  WHO ARE SUPPORTED BY THEIR INSTITUTION/UNIVERSITY/COMPANY/GROUP
  (IN ALPHABETICAL ORDER):

     EP ANALYTICS,
     FACULTES UNIVERSITAIRES NOTRE-DAME DE LA PAIX,
     INSTITUTE FOR MOLECULAR SCIENCE, IOWA STATE UNIVERSITY,
     JACKSON STATE UNIVERSITY, JOHANNES KEPLER UNIVERSITY LINZ,
     KYUNGPOOK NATIONAL UNIVERSITY
     KYUSHU UNIVERSITY, MICHIGAN STATE UNIVERSITY,
     MIE UNIVERSITY, THE MOLECULAR SCIENCES SOFTWARE INSTITUTE,
     MOSCOW STATE UNIVERSITY,
     N. COPERNICUS UNIVERSITY, NAGOYA UNIVERSITY,
     NANJING UNIVERSITY, NAT. INST. OF ADVANCED INDUSTRIAL
     SCIENCE AND TECHNOLOGY, NATIONAL INST. OF STANDARDS AND
     TECHNOLOGY, NESMEYANOV INSTITUTE OF ORGANOELEMENT COMPOUNDS
     OF RUSSIAN ACADEMY OF SCIENCES, OSAKA PREFECTURE UNIVERSITY,
     PENNSYLVANIA STATE UNIVERSITY, TOKYO INSTITUTE OF TECHNOLOGY,
     UNIVERSITY OF AARHUS, UNIVERSITY OF ALBERTA,
     UNIVERSITY OF CALIFORNIA AT SANTA BARBARA,
     UNIVERSITY OF COPENHAGEN, UNIVERSITY OF IOWA,
     UNIVERSITY OF MEMPHIS, UNIVERSITY OF MINNESOTA,
     UNIVERSITY OF NEBRASKA, UNIVERSITY OF NEW ENGLAND,
     UNIVERSITY OF NOTRE DAME, UNIVERSITY OF PISA,
     UNIVERSITY OF SILESIA, UNIVERSITY OF TOKYO,
     UNIVERSITY OF ZURICH, WASEDA UNIVERSITY,
     YALE UNIVERSITY

  GAMESS SOFTWARE MANAGEMENT TEAM FOR THIS RELEASE:
     MARK S. GORDON (TEAM LEAD),
     BRETT BODE (SENIOR ADVISOR),
     GIUSEPPE BARCA,
     COLLEEN BERTONI,
     KRISTOPHER KEIPERT (ADVISOR),
     SAROM S. LEANG (DEVELOPMENT LEAD),
     BUU PHAM,
     JACKSON HAYES (WEBSITE ADMINISTRATOR),
     PENG XU


 PARALLEL VERSION RUNNING ON        2 PROCESSORS IN        2 NODES.

 EXECUTION OF GAMESS BEGUN 21:10:52 27-MAY-2023    

            ECHO OF THE FIRST FEW INPUT CARDS -
 INPUT CARD>! (Energy/Geometry) PM3                                                         
 INPUT CARD> $CONTRL                                                                        
 INPUT CARD>COORD=UNIQUE                                                                    
 INPUT CARD>ICHARG=0                                                                        
 INPUT CARD>MAXIT=200                                                                       
 INPUT CARD>MULT=1                                                                          
 INPUT CARD>RUNTYP=OPTIMIZE                                                                 
 INPUT CARD>SCFTYP=RHF                                                                      
 INPUT CARD>UNITS=ANGS                                                                      
 INPUT CARD>! DFTTYP=PBE                                                                    
 INPUT CARD> $END                                                                           
 INPUT CARD> $DFT                                                                           
 INPUT CARD>METHOD=GRID                                                                     
 INPUT CARD> $END                                                                           
 INPUT CARD> $BASIS                                                                         
 INPUT CARD>! EXTFIL=.T.                                                                    
 INPUT CARD>! GBASIS=GEGSSBAS                                                               
 INPUT CARD>! NGAUSS=6                                                                      
 INPUT CARD>GBASIS=PM3                                                                      
 INPUT CARD>! NDFUNC=1                                                                      
 INPUT CARD>! NPFUNC=1                                                                      
 INPUT CARD> $END                                                                           
 INPUT CARD> $SCF                                                                           
 INPUT CARD>DAMP=.F.                                                                        
 INPUT CARD>DEM=.F.                                                                         
 INPUT CARD>DIIS=.F.                                                                        
 INPUT CARD>DIRSCF=.T.                                                                      
 INPUT CARD>EXTRAP=.T.                                                                      
 INPUT CARD>RSTRCT=.F.                                                                      
 INPUT CARD>SHIFT=.F.                                                                       
 INPUT CARD>SOSCF=.T.                                                                       
 INPUT CARD> $END                                                                           
 INPUT CARD> $STATPT                                                                        
 INPUT CARD>METHOD=QA                                                                       
 INPUT CARD>NSTEP=100                                                                       
 INPUT CARD>OPTTOL=0.001                                                                    
 INPUT CARD> $END                                                                           
 INPUT CARD> $GUESS                                                                         
 INPUT CARD>GUESS=HUCKEL                                                                    
 INPUT CARD> $END                                                                           
 INPUT CARD> $SYSTEM                                                                        
 INPUT CARD>MWORDS=10                                                                       
 INPUT CARD> $END                                                                           
 INPUT CARD> $DATA                                                                          
 INPUT CARD>C48 FULLERENE                                                                   
 INPUT CARD>C1                                                                              
 INPUT CARD>C	6.0	-3.0195	-0.032	1.7513                                                     
 INPUT CARD>C	6.0	-3.3031	0.9835	0.8525                                                     
 INPUT CARD>C	6.0	-2.3653	1.9652	0.7024                                                     
 INPUT CARD>C	6.0	-1.7235	-0.1295	2.2582                                                    
     10000000 WORDS OF MEMORY AVAILABLE

     BASIS OPTIONS
     -------------
     GBASIS=PM3          IGAUSS=       0      POLAR=NONE    
     NDFUNC=       0     NFFUNC=       0     DIFFSP=       F
     NPFUNC=       0      DIFFS=       F     BASNAM=        


     RUN TITLE
     ---------
 C48 FULLERENE                                                                   

 THE POINT GROUP OF THE MOLECULE IS C1      
 THE ORDER OF THE PRINCIPAL AXIS IS     0

 ATOM      ATOMIC                      COORDINATES (BOHR)
           CHARGE         X                   Y                   Z
 C           6.0    -5.7060276199       -0.0604712316        3.3094771223
 C           6.0    -6.2419539100        1.8585455089        1.6109914045
 C           6.0    -4.4697688788        3.7136895111        1.3273435338
 C           6.0    -3.2569427398       -0.2447195154        4.2673792255
 C           6.0    -1.4409160656        1.6616360610        4.1900894326
 C           6.0    -2.1879247486        3.7854990986        2.7100560390
 C           6.0     4.5296731926       -1.9792989995        3.2159356859
 C           6.0     1.9993300950       -1.5482525017        4.0143449157
 C           6.0     1.1888266189        1.0881042237        4.3197246353
 C           6.0     2.9867119236        2.8349669268        3.3393347929
 C           6.0    -7.3202315586        0.6296566991       -0.4741322503
 C           6.0    -5.9057716568        0.9505321718       -2.6992846009
 C           6.0    -4.2297736783        2.9438151437       -3.0645686343
 C           6.0    -3.7393897845        4.4856425771       -1.0393492932
 C           6.0    -2.5276974812       -1.7073674299       -4.1103429959
 C           6.0    -0.9813347054        0.3191747193       -4.7721250368
 C           6.0    -4.9556174302       -1.4511205860       -3.2189592475
 C           6.0    -1.8230186604        2.7094891212       -4.1681686111
 C           6.0    -5.8337730967       -3.0524743880       -1.3846022312
 C           6.0     1.5643151726       -2.8238175435       -3.6740052653
 C           6.0    -0.8794784747       -3.5031740360       -3.1335436328
 C           6.0    -1.5047888040       -4.6787725730       -0.7978423120
 C           6.0    -3.9956366284       -4.3595978537       -0.0073699314
 C           6.0     3.5736608154       -3.6447145125       -2.3443940604
 C           6.0     5.8169545354       -2.3914482375       -2.2030425565
 C           6.0    -1.3299891502        5.2364307120       -1.0327352523
 C           6.0     0.0151178079        4.2513165546       -3.0373565801
 C           6.0     2.6140579588        3.6711706763       -2.8049202836
 C           6.0     3.5530628021        1.3058006575       -3.8038294407
 C           6.0     1.5459848306       -0.3227651987       -4.5519719592
 C           6.0     5.7859630292        0.2006888999       -2.7727949418
 C           6.0    -7.5265896365       -1.8659154403        0.1672407499
 C           6.0    -6.6178204090       -2.3026311160        2.4919816600
 C           6.0    -4.5374210691       -3.7839873178        2.4848007013
 C           6.0     3.0621119905       -4.5534837400        0.0975098610
 C           6.0     0.5674847141       -4.6693239431        0.9609256648
 C           6.0     0.0304245884       -3.2835878763        3.2881232186
 C           6.0    -2.4999185092       -2.7550315175        3.7526178664
 C           6.0     5.1436451660       -3.7512950582        1.4061451075
 C           6.0     7.0919526593       -2.8249513790       -0.0228656845
 C           6.0     7.9139834640       -0.5909173164        0.8046453256
 C           6.0     3.8249943717        4.3611096345       -0.4822580721
 C           6.0     5.9450779574        3.1428032902        0.3263556781
 C           6.0     7.2631618338        1.3082573013       -0.8734313515
 C           6.0     2.1389808455        4.5971364103        1.5815116791
 C           6.0    -0.3386388970        5.0200570864        1.3118477807
 C           6.0     6.3415424696       -0.1090371895        2.8378015158
 C           6.0     5.3520819424        2.1866019404        2.6650805605

          INTERNUCLEAR DISTANCES (ANGS.)
          ------------------------------

                1 C          2 C          3 C          4 C          5 C     

   1 C       0.0000000    1.3854641 *  2.3488245 *  1.3950161 *  2.4782398 *
   2 C       1.3854641 *  0.0000000    1.3659186 *  2.3895392 *  2.8858595 *
   3 C       2.3488245 *  1.3659186 *  0.0000000    2.6870409 *  2.4582654 *
   4 C       1.3950161 *  2.3895392 *  2.6870409 *  0.0000000    1.3938692 *
   5 C       2.4782398 *  2.8858595 *  2.4582654 *  1.3938692 *  0.0000000  
   6 C       2.7764333 *  2.4454772 *  1.4124040 *  2.3553273 *  1.4257684 *
   7 C       5.5110761    6.1104014    5.7231163    4.2580091    3.7363556  
   8 C       4.1695295    4.8874079    4.6361862    2.8688840 *  2.4916082 *
   9 C       3.7373119    4.2051221    3.6611932    2.4562048 *  1.4259624 *
  10 C       4.8484932    4.9952999    4.1132893    3.7166540    2.4653288 *
  11 C       2.2072230 *  1.4021291 *  2.4181554 *  3.3366202    4.0087157  
  12 C       3.2261261    2.3377411 *  2.6936565 *  3.9944760    4.3606286  
  13 C       3.8098381    2.7541396 *  2.3629525 *  4.2621150    4.1684852  
  14 C       3.4880411    2.3776948 *  1.3728657 *  3.7705670    3.3720270  
  15 C       4.3594629    4.0731218    4.1911351    4.5168732    4.7751747  
  16 C       4.9578895    4.4522633    4.1294621    4.9417621    4.8016736  
  17 C       3.5544605    3.1722830    3.6501794    4.1121588    4.6415929  
  18 C       4.6934658    3.8760124    3.2712554    4.7902075    4.4622062  
  19 C       2.9464665 *  3.0517661    3.9243455    3.6072828    4.5088019  
  20 C       5.5314337    5.5700412    5.4007888    5.1021541    5.0478821  
  21 C       4.6332572    4.7335428    4.8751219    4.4602932    4.7515897  
  22 C       3.9546640    4.4582906    4.8425051    3.6810103    4.2691299  
  23 C       3.0125667    3.6019188    4.3374536    3.1640805    4.1126477  
  24 C       6.0549921    6.3120274    6.0872528    5.3426637    5.1849329  
  25 C       6.8711673    7.0606321    6.5999459    6.0058800    5.5494603  
  26 C       4.3010650    3.4509010    2.2292705 *  4.1616139    3.3497112  
  27 C       5.0647907    4.3147725    3.3238844    4.8580629    4.1351217  
  28 C       5.8097500    5.3238185    4.3398347    5.2870148    4.4087549  
  29 C       6.2208513    5.9298122    5.1981449    5.6482005    4.9913838  
  30 C       5.6615255    5.3807783    4.9372155    5.3143509    5.0001808  
  31 C       6.8819107    6.8310379    6.1332612    6.0691021    5.3664915  
  32 C       2.1461204 *  2.2204213 *  3.4221849    3.2478422    4.2880455  
  33 C       1.3519361 *  2.2595813 *  3.4362564    2.2872786 *  3.5655444  
  34 C       2.1107676 *  3.1532549    4.0147587    2.2037947 *  3.4356267  
  35 C       5.4836697    6.0328617    5.9538408    4.6097296    4.6027527  
  36 C       4.3027732    5.0035694    5.1789964    3.5551892    3.9081174  
  37 C       3.4819630    4.3828222    4.5230971    2.4250206 *  2.7716780 *
  38 C       2.2285943 *  3.3415558    3.8014901    1.4139762 *  2.4145692 *
  39 C       6.1475788    6.7175116    6.4409792    5.0494882    4.7451184  
  40 C       7.1494795    7.5284219    7.0650671    6.0835464    5.5673950  
  41 C       7.3336456    7.6142819    6.9433253    6.1915993    5.3978511  
  42 C       5.9108889    5.5999848    4.5056858    5.1285589    3.9898632  
  43 C       6.5862533    6.5203432    5.5449323    5.5923837    4.4800786  
  44 C       7.2474107    7.2723535    6.4440488    6.2503936    5.3319720  
  45 C       4.9137557    4.6657956    3.5308716    4.0912433    2.8119934 *
  46 C       4.0512710    3.5472157    2.2928140 *  3.5486271    2.4121593 *
  47 C       6.3802359    6.7710049    6.1206201    5.1358287    4.2837422  
  48 C       5.9810227    6.1630499    5.3073679    4.8092283    3.6946299  

                6 C          7 C          8 C          9 C         10 C     

   1 C       2.7764333 *  5.5110761    4.1695295    3.7373119    4.8484932  
   2 C       2.4454772 *  6.1104014    4.8874079    4.2051221    4.9952999  
   3 C       1.4124040 *  5.7231163    4.6361862    3.6611932    4.1132893  
   4 C       2.3553273 *  4.2580091    2.8688840 *  2.4562048 *  3.7166540  
   5 C       1.4257684 *  3.7363556    2.4916082 *  1.4259624 *  2.4653288 *
   6 C       0.0000000    4.6919534    3.6541281    2.4405011 *  2.8039588 *
   7 C       4.6919534    0.0000000    1.4224826 *  2.4701056 *  2.6760422 *
   8 C       3.6541281    1.4224826 *  0.0000000    1.4684597 *  2.4043041 *
   9 C       2.4405011 *  2.4701056 *  1.4684597 *  0.0000000    1.4243703 *
  10 C       2.8039588 *  2.6760422 *  2.4043041 *  1.4243703 *  0.0000000  
  11 C       3.6061389    6.7112422    5.5938802    5.1739170    5.9314847  
  12 C       3.7835392    6.5342624    5.6452916    5.2816752    5.7748801  
  13 C       3.2716624    6.2704645    5.5270891    4.9452649    5.1059296  
  14 C       2.1789823 *  5.9935093    5.1545401    4.2515780    4.3359625  
  15 C       4.6376241    5.3850068    4.9224820    5.0947776    5.4620529  
  16 C       4.4101233    5.2775530    5.0083126    4.9630672    4.9604655  
  17 C       4.4348568    6.0718929    5.3102988    5.3190503    5.9036443  
  18 C       3.6891256    5.7206588    5.2836233    4.8426060    4.7186430  
  19 C       4.6379697    6.0269937    5.0968538    5.2652642    6.1434380  
  20 C       5.2524303    3.9944241    4.1305338    4.7136548    4.8277671  
  21 C       4.9918119    4.4870051    4.2069281    4.7599171    5.2122647  
  22 C       4.8619820    4.0925729    3.5591311    4.3218565    5.1236300  
  23 C       4.6433556    4.9848505    4.0995864    4.5913519    5.5931654  
  24 C       5.6488626    3.1129315    3.6396945    4.5057038    4.5716613  
  25 C       5.9487457    2.9554578 *  3.8865229    4.6154858    4.3004772  
  26 C       2.1721900 *  5.4083262    4.8090920    3.8233513    3.4908028  
  27 C       3.2664914    5.2467449    4.9442997    4.2830728    3.7975100  
  28 C       3.8701302    4.4854787    4.5559256    4.0806423    3.2872931  
  29 C       4.7784016    4.1337771    4.4803396    4.4786386    3.8772445  
  30 C       4.8371828    4.4898090    4.5855316    4.7574511    4.5619772  
  31 C       5.4609299    3.4374332    4.2156085    4.4972284    3.8208414  
  32 C       4.3284544    6.5809924    5.4390635    5.3425373    6.3211764  
  33 C       3.9859681    5.9139024    4.6477900    4.6066230    5.7813665  
  34 C       4.1958116    4.9074923    3.7443593    4.0953716    5.3222016  
  35 C       5.3946738    2.2763691 *  2.6723460 *  3.8584175    4.2697855  
  36 C       4.7958692    2.8011548 *  2.4316047 *  3.5425473    4.3580525  
  37 C       3.9325819    2.4792176 *  1.4410125 *  2.4547088 *  3.5960298  
  38 C       3.5086812    3.7532416    2.4689425 *  2.8348368 *  4.1506526  
  39 C       5.6066665    1.3791413 *  2.4561362 *  3.6489955    3.8074452  
  40 C       6.2002558    2.2307340 *  3.5047291    4.3962176    4.1055448  
  41 C       5.9124082    2.3184656 *  3.5969181    4.1127195    3.4473507  
  42 C       3.6153842    3.9020854    4.0464953    3.3768385    2.2223177 *
  43 C       4.4977208    3.2009308    3.7856038    3.4615923    2.2404102 *
  44 C       5.5070332    3.1307849    4.0907123    4.2306020    3.2777507  
  45 C       2.4049624 *  3.8025815    3.4983373    2.4084199 *  1.3914274 *
  46 C       1.3899320 *  4.6228713    3.9568972    2.7415635 *  2.3631945 *
  47 C       4.9623043    1.3924236 *  2.4995100 *  2.9070922 *  2.3768003 *
  48 C       4.0787929    2.2658754 *  2.7502252 *  2.4409495 *  1.3460226 *

               11 C         12 C         13 C         14 C         15 C     

   1 C       2.2072230 *  3.2261261    3.8098381    3.4880411    4.3594629  
   2 C       1.4021291 *  2.3377411 *  2.7541396 *  2.3776948 *  4.0731218  
   3 C       2.4181554 *  2.6936565 *  2.3629525 *  1.3728657 *  4.1911351  
   4 C       3.3366202    3.9944760    4.2621150    3.7705670    4.5168732  
   5 C       4.0087157    4.3606286    4.1684852    3.3720270    4.7751747  
   6 C       3.6061389    3.7835392    3.2716624    2.1789823 *  4.6376241  
   7 C       6.7112422    6.5342624    6.2704645    5.9935093    5.3850068  
   8 C       5.5938802    5.6452916    5.5270891    5.1545401    4.9224820  
   9 C       5.1739170    5.2816752    4.9452649    4.2515780    5.0947776  
  10 C       5.9314847    5.7748801    5.1059296    4.3359625    5.4620529  
  11 C       0.0000000    1.4055570 *  2.4603396 *  2.8006690 *  3.4152270  
  12 C       1.4055570 *  0.0000000    1.3916032 *  2.3633320 *  2.3940169 *
  13 C       2.4603396 *  1.3916032 *  0.0000000    1.3717048 *  2.6787142 *
  14 C       2.8006690 *  2.3633320 *  1.3717048 *  0.0000000    3.7137753  
  15 C       3.4152270    2.3940169 *  2.6787142 *  3.7137753    0.0000000  
  16 C       4.0560929    2.8470208 *  2.3875714 *  3.3004687    1.3936630 *
  17 C       2.2108662 *  1.3941376 *  2.3586200 *  3.4079617    1.3753542 *
  18 C       3.6735330    2.4775682 *  1.4065877 *  2.1571169 *  2.3670577 *
  19 C       2.1558115 *  2.2299428 *  3.4028438    4.1441319    2.3765368 *
  20 C       5.3208198    4.4588637    4.3382358    4.9781745    2.2563946 *
  21 C       4.2871869    3.5611586    3.8449345    4.6249587    1.3896001 *
  22 C       4.1702251    3.9128070    4.4484716    4.9933215    2.4162173 *
  23 C       3.1822636    3.3086276    4.1915757    4.7143998    2.6995073 *
  24 C       6.2712532    5.5777862    5.4178283    5.8278384    3.5140901  
  25 C       7.1917868    6.4559060    6.0368899    6.2606897    4.5441193  
  26 C       4.0098023    3.4328923    2.2321737 *  1.3354717 *  4.0689053  
  27 C       4.5365613    3.5916442    2.3504886 *  2.2540261 *  3.4750117  
  28 C       5.6345199    4.7331209    3.6445869    3.5160196    3.9976688  
  29 C       6.0282692    5.0429172    4.2268690    4.4568416    3.5948541  
  30 C       5.1887894    4.1188355    3.5984949    4.2133440    2.2887786 *
  31 C       7.0450208    6.1998333    5.4974578    5.6027354    4.5689381  
  32 C       1.3678821 *  2.2930170 *  3.5279535    3.9649833    3.4826048  
  33 C       2.2382086 *  3.2637553    4.2368304    4.3262084    4.1219523  
  34 C       3.1741625    3.7851083    4.6179159    4.7756089    3.8103430  
  35 C       6.1481374    5.7614545    5.7818476    6.0163213    3.9970357  
  36 C       5.0854637    4.9325159    5.2165761    5.4575515    3.5129999  
  37 C       4.8355392    4.9926759    5.2194834    5.1114101    4.2256638  
  38 C       3.8363325    4.3301473    4.7902463    4.6412978    4.1976975  
  39 C       7.0616202    6.7155771    6.5385575    6.5399092    5.1157724  
  40 C       7.8462732    7.3010800    6.9140630    6.9359777    5.5625096  
  41 C       8.1156949    7.5884686    6.9990766    6.7968463    6.1355420  
  42 C       6.2195746    5.5811282    4.5384883    4.0142818    5.0298599  
  43 C       7.1571125    6.5755078    5.6764114    5.2240619    5.6747043  
  44 C       7.7284395    7.0379085    6.2515455    6.0608574    5.6854552  
  45 C       5.5359950    5.1940569    4.2624420    3.4063804    5.1284310  
  46 C       4.4654526    4.2216003    3.2879214    2.2060303 *  4.7168181  
  47 C       7.4491664    7.1346501    6.6075277    6.2112105    6.0218136  
  48 C       6.9575492    6.6314915    5.9214487    5.3355986    5.8726823  

               16 C         17 C         18 C         19 C         20 C     

   1 C       4.9578895    3.5544605    4.6934658    2.9464665 *  5.5314337  
   2 C       4.4522633    3.1722830    3.8760124    3.0517661    5.5700412  
   3 C       4.1294621    3.6501794    3.2712554    3.9243455    5.4007888  
   4 C       4.9417621    4.1121588    4.7902075    3.6072828    5.1021541  
   5 C       4.8016736    4.6415929    4.4622062    4.5088019    5.0478821  
   6 C       4.4101233    4.4348568    3.6891256    4.6379697    5.2524303  
   7 C       5.2775530    6.0718929    5.7206588    6.0269937    3.9944241  
   8 C       5.0083126    5.3102988    5.2836233    5.0968538    4.1305338  
   9 C       4.9630672    5.3190503    4.8426060    5.2652642    4.7136548  
  10 C       4.9604655    5.9036443    4.7186430    6.1434380    4.8277671  
  11 C       4.0560929    2.2108662 *  3.6735330    2.1558115 *  5.3208198  
  12 C       2.8470208 *  1.3941376 *  2.4775682 *  2.2299428 *  4.4588637  
  13 C       2.3875714 *  2.3586200 *  1.4065877 *  3.4028438    4.3382358  
  14 C       3.3004687    3.4079617    2.1571169 *  4.1441319    4.9781745  
  15 C       1.3936630 *  1.3753542 *  2.3670577 *  2.3765368 *  2.2563946 *
  16 C       0.0000000    2.4446152 *  1.3785853 *  3.6042171    2.2177894 *
  17 C       2.4446152 *  0.0000000    2.8013849 *  1.3697778 *  3.5340517  
  18 C       1.3785853 *  2.8013849 *  0.0000000    3.9964136    3.4431393  
  19 C       3.6042171    1.3697778 *  3.9964136    0.0000000    4.0998555  
  20 C       2.2177894 *  3.5340517    3.4431393    4.0998555    0.0000000  
  21 C       2.2013820 *  2.4153407 *  3.3700698    2.7904737 *  1.3723711 *
  22 C       3.3903872    2.8095157 *  4.3005796    2.4667402 *  2.4326371 *
  23 C       3.8770972    2.3484448 *  4.4903583    1.3984790 *  3.6168752  
  24 C       3.4438943    4.6833025    4.5159072    5.0138465    1.3469830 *
  25 C       4.1046011    5.7474742    4.9711822    6.1903845    2.3921865 *
  26 C       3.2742349    4.1884671    2.1468855 *  4.9954396    4.7425887  
  27 C       2.3346301 *  4.0042664    1.4035386 *  5.0281999    3.8474809  
  28 C       2.8017734 *  4.8415896    2.5084858 *  5.7627027    3.5118453  
  29 C       2.5085339 *  4.7431620    2.9465878 *  5.6242334    2.4264792 *
  30 C       1.3847769 *  3.5624651    2.4071491 *  4.4884829    1.4027115 *
  31 C       3.7346449    5.7558599    4.3035402    6.4274544    2.7892275 *
  32 C       4.4906019    2.2605411 *  4.4983435    1.3678763 *  5.2470612  
  33 C       5.0594184    3.1795951    5.0886130    2.1302193 *  5.4286048  
  34 C       4.7961287    3.2685010    5.1249722    2.1938797 *  4.6158091  
  35 C       4.2269838    4.8761210    5.1526565    4.8380363    2.3343535 *
  36 C       4.1041723    4.0416440    4.9207508    3.7077092    2.6921629 *
  37 C       4.7025716    4.4451101    5.1563839    3.9697674    3.7803943  
  38 C       4.8623322    3.9717750    5.1047927    3.2445984    4.4801490  
  39 C       5.0827227    6.0027806    5.8293410    6.0051787    3.3249746  
  40 C       5.2283934    6.6357724    5.9703362    6.8789069    3.5055985  
  41 C       5.5766174    7.1498871    6.0435371    7.4809434    4.2782415  
  42 C       4.0245659    5.7573584    3.6744049    6.4608889    4.3289513  
  43 C       4.7902256    6.5348260    4.7547050    7.1006472    4.4524703  
  44 C       4.8543128    6.7439324    5.1680172    7.3096788    4.0089887  
  45 C       4.3767157    5.5490299    3.8276556    6.0539168    4.8216515  
  46 C       4.0827689    4.8419239    3.2436747    5.3609888    5.0203928  
  47 C       5.5932528    6.8202584    5.8852449    6.9949712    4.5087504  
  48 C       5.2628926    6.5691258    5.2505684    6.8787181    4.7223100  

               21 C         22 C         23 C         24 C         25 C     

   1 C       4.6332572    3.9546640    3.0125667    6.0549921    6.8711673  
   2 C       4.7335428    4.4582906    3.6019188    6.3120274    7.0606321  
   3 C       4.8751219    4.8425051    4.3374536    6.0872528    6.5999459  
   4 C       4.4602932    3.6810103    3.1640805    5.3426637    6.0058800  
   5 C       4.7515897    4.2691299    4.1126477    5.1849329    5.5494603  
   6 C       4.9918119    4.8619820    4.6433556    5.6488626    5.9487457  
   7 C       4.4870051    4.0925729    4.9848505    3.1129315    2.9554578 *
   8 C       4.2069281    3.5591311    4.0995864    3.6396945    3.8865229  
   9 C       4.7599171    4.3218565    4.5913519    4.5057038    4.6154858  
  10 C       5.2122647    5.1236300    5.5931654    4.5716613    4.3004772  
  11 C       4.2871869    4.1702251    3.1822636    6.2712532    7.1917868  
  12 C       3.5611586    3.9128070    3.3086276    5.5777862    6.4559060  
  13 C       3.8449345    4.4484716    4.1915757    5.4178283    6.0368899  
  14 C       4.6249587    4.9933215    4.7143998    5.8278384    6.2606897  
  15 C       1.3896001 *  2.4162173 *  2.6995073 *  3.5140901    4.5441193  
  16 C       2.2013820 *  3.3903872    3.8770972    3.4438943    4.1046011  
  17 C       2.4153407 *  2.8095157 *  2.3484448 *  4.6833025    5.7474742  
  18 C       3.3700698    4.3005796    4.4903583    4.5159072    4.9711822  
  19 C       2.7904737 *  2.4667402 *  1.3984790 *  5.0138465    6.1903845  
  20 C       1.3723711 *  2.4326371 *  3.6168752    1.3469830 *  2.3921865 *
  21 C       0.0000000    1.4227436 *  2.3793486 *  2.3943876 *  3.6256938  
  22 C       1.4227436 *  0.0000000    1.3931582 *  2.8620491 *  4.1267129  
  23 C       2.3793486 *  1.3931582 *  0.0000000    4.2091054    5.4219764  
  24 C       2.3943876 *  2.8620491 *  4.2091054    0.0000000    1.3618501 *
  25 C       3.6256938    4.1267129    5.4219764    1.3618501 *  0.0000000  
  26 C       4.7625084    5.2491872    5.2981403    5.4131748    5.5660029  
  27 C       4.1310302    4.9378797    5.2762665    4.5977778    4.6880360  
  28 C       4.2262685    5.0401129    5.6995999    3.9121591    3.6423448  
  29 C       3.4790313    4.4410848    5.3833924    2.7311892 *  2.4455418 *
  30 C       2.2457207 *  3.4447573    4.3527521    2.3677484 *  2.8020473 *
  31 C       4.0397008    4.7586143    5.8956018    2.3585482 *  1.4045398 *
  32 C       4.0217429    3.5539930    2.2893611 *  6.0956073    7.1770287  
  33 C       4.2995906    3.4543596    2.2044357 *  6.0116494    7.0337743  
  34 C       3.5508224    2.4118668 *  1.3835503 *  4.9958976    6.0596718  
  35 C       2.7537050 *  2.4635992 *  3.7366212    1.4051065 *  2.2172524 *
  36 C       2.3794322 *  1.4383181 *  2.4739024 *  2.4256909 *  3.4602020  
  37 C       3.4341095    2.4249102 *  2.8114825 *  3.5264884    4.2477063  
  38 C       3.7644095    2.6668512 *  2.3035514 *  4.5783300    5.4165747  
  39 C       3.9933903    3.7388329    4.9043778    2.1523112 *  2.0718330 *
  40 C       4.5423022    4.6718052    5.9232409    2.2723763 *  1.3560487 *
  41 C       5.3264666    5.4991625    6.6242630    3.2655222    2.1615856 *
  42 C       5.0482605    5.5557476    6.2037660    4.3516243    3.8352043  
  43 C       5.3631139    5.7469084    6.5927756    4.0587212    3.2206951  
  44 C       5.1458391    5.6184371    6.6859862    3.3596746    2.2166908 *
  45 C       5.2106596    5.4219592    5.8060455    4.8902148    4.6341746  
  46 C       5.0949487    5.2885434    5.3729577    5.3901440    5.4270009  
  47 C       5.2737570    5.1758107    6.1032180    3.6285254    2.9413260 *
  48 C       5.4180602    5.4518582    6.2023223    4.1755361    3.5448269  

               26 C         27 C         28 C         29 C         30 C     

   1 C       4.3010650    5.0647907    5.8097500    6.2208513    5.6615255  
   2 C       3.4509010    4.3147725    5.3238185    5.9298122    5.3807783  
   3 C       2.2292705 *  3.3238844    4.3398347    5.1981449    4.9372155  
   4 C       4.1616139    4.8580629    5.2870148    5.6482005    5.3143509  
   5 C       3.3497112    4.1351217    4.4087549    4.9913838    5.0001808  
   6 C       2.1721900 *  3.2664914    3.8701302    4.7784016    4.8371828  
   7 C       5.4083262    5.2467449    4.4854787    4.1337771    4.4898090  
   8 C       4.8090920    4.9442997    4.5559256    4.4803396    4.5855316  
   9 C       3.8233513    4.2830728    4.0806423    4.4786386    4.7574511  
  10 C       3.4908028    3.7975100    3.2872931    3.8772445    4.5619772  
  11 C       4.0098023    4.5365613    5.6345199    6.0282692    5.1887894  
  12 C       3.4328923    3.5916442    4.7331209    5.0429172    4.1188355  
  13 C       2.2321737 *  2.3504886 *  3.6445869    4.2268690    3.5984949  
  14 C       1.3354717 *  2.2540261 *  3.5160196    4.4568416    4.2133440  
  15 C       4.0689053    3.4750117    3.9976688    3.5948541    2.2887786 *
  16 C       3.2742349    2.3346301 *  2.8017734 *  2.5085339 *  1.3847769 *
  17 C       4.1884671    4.0042664    4.8415896    4.7431620    3.5624651  
  18 C       2.1468855 *  1.4035386 *  2.5084858 *  2.9465878 *  2.4071491 *
  19 C       4.9954396    5.0281999    5.7627027    5.6242334    4.4884829  
  20 C       4.7425887    3.8474809    3.5118453    2.4264792 *  1.4027115 *
  21 C       4.7625084    4.1310302    4.2262685    3.4790313    2.2457207 *
  22 C       5.2491872    4.9378797    5.0401129    4.4410848    3.4447573  
  23 C       5.2981403    5.2762665    5.6995999    5.3833924    4.3527521  
  24 C       5.4131748    4.5977778    3.9121591    2.7311892 *  2.3677484 *
  25 C       5.5660029    4.6880360    3.6423448    2.4455418 *  2.8020473 *
  26 C       0.0000000    1.3797498 *  2.4334207 *  3.6268147    3.7998063  
  27 C       1.3797498 *  0.0000000    1.4145063 *  2.4696538 *  2.6753475 *
  28 C       2.4334207 *  1.4145063 *  0.0000000    1.4467482 *  2.3750860 *
  29 C       3.6268147    2.4696538 *  1.4467482 *  0.0000000    1.4239004 *
  30 C       3.7998063    2.6753475 *  2.3750860 *  1.4239004 *  0.0000000  
  31 C       4.7041232    3.7336158    2.4880481 *  1.4268318 *  2.4489469 *
  32 C       5.0280506    5.4112694    6.3131045    6.4504922    5.4729283  
  33 C       5.2177586    5.7367227    6.4588041    6.6116432    5.8013098  
  34 C       5.3973127    5.6941523    6.1417439    6.0546004    5.2520424  
  35 C       5.7094873    5.2020053    4.6214414    3.7340831    3.4219116  
  36 C       5.4404740    5.1813235    4.9622581    4.3417915    3.7508954  
  37 C       5.1062523    5.2060584    5.0803498    4.8432660    4.5067292  
  38 C       4.9678389    5.3317877    5.5614021    5.5558278    5.0549992  
  39 C       6.0017961    5.5522848    4.7101199    3.9333216    4.1057176  
  40 C       6.1923873    5.5309103    4.4271290    3.5054764    4.0137841  
  41 C       5.8637276    5.3076316    4.0744438    3.5043046    4.4057513  
  42 C       2.7822380 *  2.4282111 *  1.4333909 *  2.3925423 *  3.4979833  
  43 C       4.0700923    3.6550709    2.4353514 *  2.7063029 *  3.9301972  
  44 C       5.0006037    4.2950913    2.9429191 *  2.5018431 *  3.6996268  
  45 C       2.3233676 *  2.6964335 *  2.3856386 *  3.4226936    4.1726791  
  46 C       1.3519068 *  2.3446604 *  2.7743069 *  3.9284487    4.3147238  
  47 C       5.3550928    5.1183728    4.0998235    3.8846313    4.6631238  
  48 C       4.3516704    4.2750193    3.3309440    3.5835529    4.5172383  

               31 C         32 C         33 C         34 C         35 C     

   1 C       6.8819107    2.1461204 *  1.3519361 *  2.1107676 *  5.4836697  
   2 C       6.8310379    2.2204213 *  2.2595813 *  3.1532549    6.0328617  
   3 C       6.1332612    3.4221849    3.4362564    4.0147587    5.9538408  
   4 C       6.0691021    3.2478422    2.2872786 *  2.2037947 *  4.6097296  
   5 C       5.3664915    4.2880455    3.5655444    3.4356267    4.6027527  
   6 C       5.4609299    4.3284544    3.9859681    4.1958116    5.3946738  
   7 C       3.4374332    6.5809924    5.9139024    4.9074923    2.2763691 *
   8 C       4.2156085    5.4390635    4.6477900    3.7443593    2.6723460 *
   9 C       4.4972284    5.3425373    4.6066230    4.0953716    3.8584175  
  10 C       3.8208414    6.3211764    5.7813665    5.3222016    4.2697855  
  11 C       7.0450208    1.3678821 *  2.2382086 *  3.1741625    6.1481374  
  12 C       6.1998333    2.2930170 *  3.2637553    3.7851083    5.7614545  
  13 C       5.4974578    3.5279535    4.2368304    4.6179159    5.7818476  
  14 C       5.6027354    3.9649833    4.3262084    4.7756089    6.0163213  
  15 C       4.5689381    3.4826048    4.1219523    3.8103430    3.9970357  
  16 C       3.7346449    4.4906019    5.0594184    4.7961287    4.2269838  
  17 C       5.7558599    2.2605411 *  3.1795951    3.2685010    4.8761210  
  18 C       4.3035402    4.4983435    5.0886130    5.1249722    5.1526565  
  19 C       6.4274544    1.3678763 *  2.1302193 *  2.1938797 *  4.8380363  
  20 C       2.7892275 *  5.2470612    5.4286048    4.6158091    2.3343535 *
  21 C       4.0397008    4.0217429    4.2995906    3.5508224    2.7537050 *
  22 C       4.7586143    3.5539930    3.4543596    2.4118668 *  2.4635992 *
  23 C       5.8956018    2.2893611 *  2.2044357 *  1.3835503 *  3.7366212  
  24 C       2.3585482 *  6.0956073    6.0116494    4.9958976    1.4051065 *
  25 C       1.4045398 *  7.1770287    7.0337743    6.0596718    2.2172524 *
  26 C       4.7041232    5.0280506    5.2177586    5.3973127    5.7094873  
  27 C       3.7336158    5.4112694    5.7367227    5.6941523    5.2020053  
  28 C       2.4880481 *  6.3131045    6.4588041    6.1417439    4.6214414  
  29 C       1.4268318 *  6.4504922    6.6116432    6.0546004    3.7340831  
  30 C       2.4489469 *  5.4729283    5.8013098    5.2520424    3.4219116  
  31 C       0.0000000    7.2968673    7.2525924    6.4830631    3.2732157  
  32 C       7.2968673    0.0000000    1.3409191 *  2.2441865 *  5.7810886  
  33 C       7.2525924    1.3409191 *  0.0000000    1.3514786 *  5.4095511  
  34 C       6.4830631    2.2441865 *  1.3514786 *  0.0000000    4.2348791  
  35 C       3.2732157    5.7810886    5.4095511    4.2348791    0.0000000  
  36 C       4.2627588    4.5522494    4.0844112    2.8578550 *  1.3982773 *
  37 C       4.7919370    4.3911563    3.5810594    2.4685390 *  2.4240580 *
  38 C       5.7961972    3.3010177    2.2914649 *  1.3817027 *  3.6482705  
  39 C       3.0625737    6.8102540    6.2972035    5.1547300    1.3685974 *
  40 C       2.2712876 *  7.7530819    7.3811245    6.3158690    2.3212691 *
  41 C       2.2421878 *  8.2055447    7.7943766    6.8600660    3.3360263  
  42 C       2.7190164 *  6.8600672    6.7416418    6.3738084    4.7445719  
  43 C       2.2628803 *  7.6061459    7.3357235    6.7461715    4.3507477  
  44 C       1.4017111 *  8.0235403    7.7960972    7.0295463    3.8507074  
  45 C       3.8008491    6.1982550    5.9191572    5.6904029    4.9298273  
  46 C       4.6561995    5.3021706    5.1426282    5.1987938    5.4145050  
  47 C       2.9880194 *  7.5311350    6.9577559    6.0793626    3.2627959  
  48 C       3.0720821    7.2657844    6.7656452    6.1138343    4.0044817  

               36 C         37 C         38 C         39 C         40 C     

   1 C       4.3027732    3.4819630    2.2285943 *  6.1475788    7.1494795  
   2 C       5.0035694    4.3828222    3.3415558    6.7175116    7.5284219  
   3 C       5.1789964    4.5230971    3.8014901    6.4409792    7.0650671  
   4 C       3.5551892    2.4250206 *  1.4139762 *  5.0494882    6.0835464  
   5 C       3.9081174    2.7716780 *  2.4145692 *  4.7451184    5.5673950  
   6 C       4.7958692    3.9325819    3.5086812    5.6066665    6.2002558  
   7 C       2.8011548 *  2.4792176 *  3.7532416    1.3791413 *  2.2307340 *
   8 C       2.4316047 *  1.4410125 *  2.4689425 *  2.4561362 *  3.5047291  
   9 C       3.5425473    2.4547088 *  2.8348368 *  3.6489955    4.3962176  
  10 C       4.3580525    3.5960298    4.1506526    3.8074452    4.1055448  
  11 C       5.0854637    4.8355392    3.8363325    7.0616202    7.8462732  
  12 C       4.9325159    4.9926759    4.3301473    6.7155771    7.3010800  
  13 C       5.2165761    5.2194834    4.7902463    6.5385575    6.9140630  
  14 C       5.4575515    5.1114101    4.6412978    6.5399092    6.9359777  
  15 C       3.5129999    4.2256638    4.1976975    5.1157724    5.5625096  
  16 C       4.1041723    4.7025716    4.8623322    5.0827227    5.2283934  
  17 C       4.0416440    4.4451101    3.9717750    6.0027806    6.6357724  
  18 C       4.9207508    5.1563839    5.1047927    5.8293410    5.9703362  
  19 C       3.7077092    3.9697674    3.2445984    6.0051787    6.8789069  
  20 C       2.6921629 *  3.7803943    4.4801490    3.3249746    3.5055985  
  21 C       2.3794322 *  3.4341095    3.7644095    3.9933903    4.5423022  
  22 C       1.4383181 *  2.4249102 *  2.6668512 *  3.7388329    4.6718052  
  23 C       2.4739024 *  2.8114825 *  2.3035514 *  4.9043778    5.9232409  
  24 C       2.4256909 *  3.5264884    4.5783300    2.1523112 *  2.2723763 *
  25 C       3.4602020    4.2477063    5.4165747    2.0718330 *  1.3560487 *
  26 C       5.4404740    5.1062523    4.9678389    6.0017961    6.1923873  
  27 C       5.1813235    5.2060584    5.3317877    5.5522848    5.5309103  
  28 C       4.9622581    5.0803498    5.5614021    4.7101199    4.4271290  
  29 C       4.3417915    4.8432660    5.5558278    3.9333216    3.5054764  
  30 C       3.7508954    4.5067292    5.0549992    4.1057176    4.0137841  
  31 C       4.2627588    4.7919370    5.7961972    3.0625737    2.2712876 *
  32 C       4.5522494    4.3911563    3.3010177    6.8102540    7.7530819  
  33 C       4.0844112    3.5810594    2.2914649 *  6.2972035    7.3811245  
  34 C       2.8578550 *  2.4685390 *  1.3817027 *  5.1547300    6.3158690  
  35 C       1.3982773 *  2.4240580 *  3.6482705    1.3685974 *  2.3212691 *
  36 C       0.0000000    1.4611950 *  2.4173048 *  2.4810594 *  3.6254720  
  37 C       1.4611950 *  0.0000000    1.3898096 *  2.8938602 *  4.1342994  
  38 C       2.4173048 *  1.3898096 *  0.0000000    4.2638206    5.4549720  
  39 C       2.4810594 *  2.8938602 *  4.2638206    0.0000000    1.3693413 *
  40 C       3.6254720    4.1342994    5.4549720    1.3693413 *  0.0000000  
  41 C       4.4472576    4.6001497    5.8407191    2.2466403 *  1.3336335 *
  42 C       5.1371877    4.9374232    5.5140717    4.4625683    4.1843009  
  43 C       5.0299827    4.8803139    5.7444791    3.7169506    3.2210934  
  44 C       4.8479232    5.0401478    6.1080073    3.1435039    2.2348696 *
  45 C       4.9844456    4.4104423    4.7416013    4.6961334    4.7975498  
  46 C       5.1531190    4.5210568    4.4614535    5.4738763    5.7614575  
  47 C       4.0182161    3.7459908    4.9076620    2.1657926 *  2.1248112 *
  48 C       4.5151019    4.0519636    4.9431044    3.2139399    3.1470644  

               41 C         42 C         43 C         44 C         45 C     

   1 C       7.3336456    5.9108889    6.5862533    7.2474107    4.9137557  
   2 C       7.6142819    5.5999848    6.5203432    7.2723535    4.6657956  
   3 C       6.9433253    4.5056858    5.5449323    6.4440488    3.5308716  
   4 C       6.1915993    5.1285589    5.5923837    6.2503936    4.0912433  
   5 C       5.3978511    3.9898632    4.4800786    5.3319720    2.8119934 *
   6 C       5.9124082    3.6153842    4.4977208    5.5070332    2.4049624 *
   7 C       2.3184656 *  3.9020854    3.2009308    3.1307849    3.8025815  
   8 C       3.5969181    4.0464953    3.7856038    4.0907123    3.4983373  
   9 C       4.1127195    3.3768385    3.4615923    4.2306020    2.4084199 *
  10 C       3.4473507    2.2223177 *  2.2404102 *  3.2777507    1.3914274 *
  11 C       8.1156949    6.2195746    7.1571125    7.7284395    5.5359950  
  12 C       7.5884686    5.5811282    6.5755078    7.0379085    5.1940569  
  13 C       6.9990766    4.5384883    5.6764114    6.2515455    4.2624420  
  14 C       6.7968463    4.0142818    5.2240619    6.0608574    3.4063804  
  15 C       6.1355420    5.0298599    5.6747043    5.6854552    5.1284310  
  16 C       5.5766174    4.0245659    4.7902256    4.8543128    4.3767157  
  17 C       7.1498871    5.7573584    6.5348260    6.7439324    5.5490299  
  18 C       6.0435371    3.6744049    4.7547050    5.1680172    3.8276556  
  19 C       7.4809434    6.4608889    7.1006472    7.3096788    6.0539168  
  20 C       4.2782415    4.3289513    4.4524703    4.0089887    4.8216515  
  21 C       5.3264666    5.0482605    5.3631139    5.1458391    5.2106596  
  22 C       5.4991625    5.5557476    5.7469084    5.6184371    5.4219592  
  23 C       6.6242630    6.2037660    6.5927756    6.6859862    5.8060455  
  24 C       3.2655222    4.3516243    4.0587212    3.3596746    4.8902148  
  25 C       2.1615856 *  3.8352043    3.2206951    2.2166908 *  4.6341746  
  26 C       5.8637276    2.7822380 *  4.0700923    5.0006037    2.3233676 *
  27 C       5.3076316    2.4282111 *  3.6550709    4.2950913    2.6964335 *
  28 C       4.0744438    1.4333909 *  2.4353514 *  2.9429191 *  2.3856386 *
  29 C       3.5043046    2.3925423 *  2.7063029 *  2.5018431 *  3.4226936  
  30 C       4.4057513    3.4979833    3.9301972    3.6996268    4.1726791  
  31 C       2.2421878 *  2.7190164 *  2.2628803 *  1.4017111 *  3.8008491  
  32 C       8.2055447    6.8600672    7.6061459    8.0235403    6.1982550  
  33 C       7.7943766    6.7416418    7.3357235    7.7960972    5.9191572  
  34 C       6.8600660    6.3738084    6.7461715    7.0295463    5.6904029  
  35 C       3.3360263    4.7445719    4.3507477    3.8507074    4.9298273  
  36 C       4.4472576    5.1371877    5.0299827    4.8479232    4.9844456  
  37 C       4.6001497    4.9374232    4.8803139    5.0401478    4.4104423  
  38 C       5.8407191    5.5140717    5.7444791    6.1080073    4.7416013  
  39 C       2.2466403 *  4.4625683    3.7169506    3.1435039    4.6961334  
  40 C       1.3336335 *  4.1843009    3.2210934    2.2348696 *  4.7975498  
  41 C       0.0000000    3.4659503    2.2479771 *  1.3846228 *  4.1286027  
  42 C       3.4659503    0.0000000    1.3628632 *  2.4419061 *  1.4157342 *
  43 C       2.2479771 *  1.3628632 *  0.0000000    1.3535350 *  2.2561127 *
  44 C       1.3846228 *  2.4419061 *  1.3535350 *  0.0000000    3.4741082  
  45 C       4.1286027    1.4157342 *  2.2561127 *  3.4741082    0.0000000  
  46 C       5.2876979    2.4243521 *  3.5093818    4.6235763    1.3376969 *
  47 C       1.3838267 *  3.2335295    2.1843557 *  2.1580673 *  3.4043769  
  48 C       2.2287833 *  2.1796849 *  1.3733755 *  2.1783074 *  2.2015819 *

               46 C         47 C         48 C     

   1 C       4.0512710    6.3802359    5.9810227  
   2 C       3.5472157    6.7710049    6.1630499  
   3 C       2.2928140 *  6.1206201    5.3073679  
   4 C       3.5486271    5.1358287    4.8092283  
   5 C       2.4121593 *  4.2837422    3.6946299  
   6 C       1.3899320 *  4.9623043    4.0787929  
   7 C       4.6228713    1.3924236 *  2.2658754 *
   8 C       3.9568972    2.4995100 *  2.7502252 *
   9 C       2.7415635 *  2.9070922 *  2.4409495 *
  10 C       2.3631945 *  2.3768003 *  1.3460226 *
  11 C       4.4654526    7.4491664    6.9575492  
  12 C       4.2216003    7.1346501    6.6314915  
  13 C       3.2879214    6.6075277    5.9214487  
  14 C       2.2060303 *  6.2112105    5.3355986  
  15 C       4.7168181    6.0218136    5.8726823  
  16 C       4.0827689    5.5932528    5.2628926  
  17 C       4.8419239    6.8202584    6.5691258  
  18 C       3.2436747    5.8852449    5.2505684  
  19 C       5.3609888    6.9949712    6.8787181  
  20 C       5.0203928    4.5087504    4.7223100  
  21 C       5.0949487    5.2737570    5.4180602  
  22 C       5.2885434    5.1758107    5.4518582  
  23 C       5.3729577    6.1032180    6.2023223  
  24 C       5.3901440    3.6285254    4.1755361  
  25 C       5.4270009    2.9413260 *  3.5448269  
  26 C       1.3519068 *  5.3550928    4.3516704  
  27 C       2.3446604 *  5.1183728    4.2750193  
  28 C       2.7743069 *  4.0998235    3.3309440  
  29 C       3.9284487    3.8846313    3.5835529  
  30 C       4.3147238    4.6631238    4.5172383  
  31 C       4.6561995    2.9880194 *  3.0720821  
  32 C       5.3021706    7.5311350    7.2657844  
  33 C       5.1426282    6.9577559    6.7656452  
  34 C       5.1987938    6.0793626    6.1138343  
  35 C       5.4145050    3.2627959    4.0044817  
  36 C       5.1531190    4.0182161    4.5151019  
  37 C       4.5210568    3.7459908    4.0519636  
  38 C       4.4614535    4.9076620    4.9431044  
  39 C       5.4738763    2.1657926 *  3.2139399  
  40 C       5.7614575    2.1248112 *  3.1470644  
  41 C       5.2876979    1.3838267 *  2.2287833 *
  42 C       2.4243521 *  3.2335295    2.1796849 *
  43 C       3.5093818    2.1843557 *  1.3733755 *
  44 C       4.6235763    2.1580673 *  2.1783074 *
  45 C       1.3376969 *  3.4043769    2.2015819 *
  46 C       0.0000000    4.5293667    3.4394083  
  47 C       4.5293667    0.0000000    1.3259902 *
  48 C       3.4394083    1.3259902 *  0.0000000  

  * ... LESS THAN  3.000


 TOTAL NUMBER OF BASIS SET SHELLS             =   48
 NUMBER OF CARTESIAN GAUSSIAN BASIS FUNCTIONS =  192
 NUMBER OF ELECTRONS                          =  192
 CHARGE OF MOLECULE                           =    0
 SPIN MULTIPLICITY                            =    1
 NUMBER OF OCCUPIED ORBITALS (ALPHA)          =   96
 NUMBER OF OCCUPIED ORBITALS (BETA )          =   96
 TOTAL NUMBER OF ATOMS                        =   48
 THE NUCLEAR REPULSION ENERGY IS     6035.4792625917

 THE PARAMETERS USED IN THIS CALCULATION ARE DESCRIBED IN:

  C: (PM3): J. J. P. STEWART, J. COMP. CHEM. 10, 209 (1989).                    

 THERE ARE   48 HEAVY AND    0 LIGHT ATOMS,
 YIELDING A TOTAL OF    112800 MOPAC 2E- INTEGRALS.

     $CONTRL OPTIONS
     ---------------
 SCFTYP=RHF          RUNTYP=OPTIMIZE     EXETYP=RUN     
 MPLEVL=       0     CITYP =NONE         CCTYP =NONE         VBTYP =NONE    
 DFTTYP=NONE         TDDFT =NONE    
 MULT  =       1     ICHARG=       0     NZVAR =       0     COORD =UNIQUE  
 PP    =NONE         RELWFN=NONE         LOCAL =NONE         NUMGRD=       F
 ISPHER=      -1     NOSYM =       0     MAXIT =     200     UNITS =ANGS    
 PLTORB=       F     MOLPLT=       F     AIMPAC=       F     FRIEND=        
 NPRINT=       7     IREST =       0     GEOM  =INPUT   
 NORMF =       0     NORMP =       0     ITOL  =      20     ICUT  =       9
 INTTYP=BEST         GRDTYP=BEST         QMTTOL= 1.0E-06

     $SYSTEM OPTIONS
     ---------------
  REPLICATED MEMORY=    10000000 WORDS (ON EVERY NODE).
 DISTRIBUTED MEMDDI=           0 MILLION WORDS IN AGGREGATE,
 MEMDDI DISTRIBUTED OVER   2 PROCESSORS IS           0 WORDS/PROCESSOR.
 TOTAL MEMORY REQUESTED ON EACH PROCESSOR=    10000000 WORDS.
 TIMLIM=      525600.00 MINUTES, OR     365.0 DAYS.
 PARALL= T  BALTYP=  DLB     KDIAG=    0  COREFL= F
 MXSEQ2=     300 MXSEQ3=     150  mem10=         0  mem22=         0

          ----------------
          PROPERTIES INPUT
          ----------------

     MOMENTS            FIELD           POTENTIAL          DENSITY
 IEMOM =       1   IEFLD =       0   IEPOT =       0   IEDEN =       0
 WHERE =COMASS     WHERE =NUCLEI     WHERE =NUCLEI     WHERE =NUCLEI  
 OUTPUT=BOTH       OUTPUT=BOTH       OUTPUT=BOTH       OUTPUT=BOTH    
 IEMINT=       0   IEFINT=       0                     IEDINT=       0
                                                       MORB  =       0
          EXTRAPOLATION IN EFFECT
          SOSCF IN EFFECT
 ORBITAL PRINTING OPTION: NPREO=     1   192     2     1

     -------------------------------
     INTEGRAL TRANSFORMATION OPTIONS
     -------------------------------
     NWORD  =            0
     CUTTRF = 1.0E-09     MPTRAN =       0
     DIRTRF =       T     AOINTS =DUP     

          ----------------------
          INTEGRAL INPUT OPTIONS
          ----------------------
 NOPK  =       1 NORDER=       0 SCHWRZ=       T

     ------------------------------------------
     THE POINT GROUP IS C1 , NAXIS= 0, ORDER= 1
     ------------------------------------------

     DIMENSIONS OF THE SYMMETRY SUBSPACES ARE
 A   =  192

 ..... DONE SETTING UP THE RUN .....
 CPU     0: STEP CPU TIME=     0.02 TOTAL CPU TIME=          0.0 (      0.0 MIN)
 TOTAL WALL CLOCK TIME=          0.0 SECONDS, CPU UTILIZATION IS   104.17%


          -----------------------------
          STATIONARY POINT LOCATION RUN
          -----------------------------

 OBTAINING INITIAL HESSIAN, HESS=GUESS   
 CARTESIAN COORDINATE OPTIMIZATION USING BADGER'S RULE FORCE CONSTANT GUESS

          PARAMETERS CONTROLLING GEOMETRY SEARCH ARE
          METHOD =QA                  UPHESS =BFGS    
          NNEG   =         0          NFRZ   =         0
          NSTEP  =       100          IFOLOW =         1
          HESS   =GUESS               RESTAR =         F
          IHREP  =         0          HSSEND =         F
          NPRT   =         0          NPUN   =         0
          OPTTOL = 1.000E-03          RMIN   = 1.500E-03
          RMAX   = 1.000E-01          RLIM   = 7.000E-02
          DXMAX  = 3.000E-01          PURIFY =         F
          MOVIE  =         F          TRUPD  =         T
          TRMAX  = 5.000E-01          TRMIN  = 5.000E-02
          ITBMAT =         5          STPT   =         F
          STSTEP = 1.000E-02          PROJCT=          T

 BEGINNING GEOMETRY SEARCH POINT NSERCH=   0 ...

 COORDINATES OF ALL ATOMS ARE (ANGS)
   ATOM   CHARGE       X              Y              Z
 ------------------------------------------------------------
 C           6.0  -3.0195000000  -0.0320000000   1.7513000000
 C           6.0  -3.3031000000   0.9835000000   0.8525000000
 C           6.0  -2.3653000000   1.9652000000   0.7024000000
 C           6.0  -1.7235000000  -0.1295000000   2.2582000000
 C           6.0  -0.7625000000   0.8793000000   2.2173000000
 C           6.0  -1.1578000000   2.0032000000   1.4341000000
 C           6.0   2.3970000000  -1.0474000000   1.7018000000
 C           6.0   1.0580000000  -0.8193000000   2.1243000000
 C           6.0   0.6291000000   0.5758000000   2.2859000000
 C           6.0   1.5805000000   1.5002000000   1.7671000000
 C           6.0  -3.8737000000   0.3332000000  -0.2509000000
 C           6.0  -3.1252000000   0.5030000000  -1.4284000000
 C           6.0  -2.2383000000   1.5578000000  -1.6217000000
 C           6.0  -1.9788000000   2.3737000000  -0.5500000000
 C           6.0  -1.3376000000  -0.9035000000  -2.1751000000
 C           6.0  -0.5193000000   0.1689000000  -2.5253000000
 C           6.0  -2.6224000000  -0.7679000000  -1.7034000000
 C           6.0  -0.9647000000   1.4338000000  -2.2057000000
 C           6.0  -3.0871000000  -1.6153000000  -0.7327000000
 C           6.0   0.8278000000  -1.4943000000  -1.9442000000
 C           6.0  -0.4654000000  -1.8538000000  -1.6582000000
 C           6.0  -0.7963000000  -2.4759000000  -0.4222000000
 C           6.0  -2.1144000000  -2.3070000000  -0.0039000000
 C           6.0   1.8911000000  -1.9287000000  -1.2406000000
 C           6.0   3.0782000000  -1.2655000000  -1.1658000000
 C           6.0  -0.7038000000   2.7710000000  -0.5465000000
 C           6.0   0.0080000000   2.2497000000  -1.6073000000
 C           6.0   1.3833000000   1.9427000000  -1.4843000000
 C           6.0   1.8802000000   0.6910000000  -2.0129000000
 C           6.0   0.8181000000  -0.1708000000  -2.4088000000
 C           6.0   3.0618000000   0.1062000000  -1.4673000000
 C           6.0  -3.9829000000  -0.9874000000   0.0885000000
 C           6.0  -3.5020000000  -1.2185000000   1.3187000000
 C           6.0  -2.4011000000  -2.0024000000   1.3149000000
 C           6.0   1.6204000000  -2.4096000000   0.0516000000
 C           6.0   0.3003000000  -2.4709000000   0.5085000000
 C           6.0   0.0161000000  -1.7376000000   1.7400000000
 C           6.0  -1.3229000000  -1.4579000000   1.9858000000
 C           6.0   2.7219000000  -1.9851000000   0.7441000000
 C           6.0   3.7529000000  -1.4949000000  -0.0121000000
 C           6.0   4.1879000000  -0.3127000000   0.4258000000
 C           6.0   2.0241000000   2.3078000000  -0.2552000000
 C           6.0   3.1460000000   1.6631000000   0.1727000000
 C           6.0   3.8435000000   0.6923000000  -0.4622000000
 C           6.0   1.1319000000   2.4327000000   0.8369000000
 C           6.0  -0.1792000000   2.6565000000   0.6942000000
 C           6.0   3.3558000000  -0.0577000000   1.5017000000
 C           6.0   2.8322000000   1.1571000000   1.4103000000

          ********************
          1 ELECTRON INTEGRALS
          ********************

          **************************
          1 AND 2 ELECTRON INTEGRALS
          **************************

 MOPAC ONE- AND TWO-ELECTRON INTEGRALS REQUIRE    149856 WORDS.
 ...... END OF ONE- AND TWO-ELECTRON INTEGRALS......
 CPU     0: STEP CPU TIME=     0.00 TOTAL CPU TIME=          0.0 (      0.0 MIN)
 TOTAL WALL CLOCK TIME=          0.0 SECONDS, CPU UTILIZATION IS   104.17%
 ...... END OF ONE-ELECTRON INTEGRALS ......
 CPU     0: STEP CPU TIME=     0.00 TOTAL CPU TIME=          0.0 (      0.0 MIN)
 TOTAL WALL CLOCK TIME=          0.0 SECONDS, CPU UTILIZATION IS   104.17%

          -------------
          GUESS OPTIONS
          -------------
          GUESS =HUCKEL            NORB  =       0          NORDER=       0
          MIX   =       F          PRTMO =       F          PUNMO =       F
          TOLZ  = 1.0E-08          TOLE  = 1.0E-05
          SYMDEN=       F          PURIFY=       F

 INITIAL GUESS ORBITALS GENERATED BY HUCKEL   ROUTINE.

 SYMMETRIES FOR INITIAL GUESS ORBITALS FOLLOW.   BOTH SET(S).
    96 ORBITALS ARE OCCUPIED (    0 CORE ORBITALS).
     1=A        2=A        3=A        4=A        5=A        6=A        7=A   
     8=A        9=A       10=A       11=A       12=A       13=A       14=A   
    15=A       16=A       17=A       18=A       19=A       20=A       21=A   
    22=A       23=A       24=A       25=A       26=A       27=A       28=A   
    29=A       30=A       31=A       32=A       33=A       34=A       35=A   
    36=A       37=A       38=A       39=A       40=A       41=A       42=A   
    43=A       44=A       45=A       46=A       47=A       48=A       49=A   
    50=A       51=A       52=A       53=A       54=A       55=A       56=A   
    57=A       58=A       59=A       60=A       61=A       62=A       63=A   
    64=A       65=A       66=A       67=A       68=A       69=A       70=A   
    71=A       72=A       73=A       74=A       75=A       76=A       77=A   
    78=A       79=A       80=A       81=A       82=A       83=A       84=A   
    85=A       86=A       87=A       88=A       89=A       90=A       91=A   
    92=A       93=A       94=A       95=A       96=A       97=A       98=A   
    99=A      100=A      101=A      102=A      103=A      104=A      105=A   
   106=A   
 ...... END OF INITIAL ORBITAL SELECTION ......
 CPU     0: STEP CPU TIME=     0.02 TOTAL CPU TIME=          0.0 (      0.0 MIN)
 TOTAL WALL CLOCK TIME=          0.0 SECONDS, CPU UTILIZATION IS   100.81%

          --------------------------
               R-PM3 SCF CALCULATION
          --------------------------

     NUCLEAR ENERGY =      2442.4363251694
     MAXIT =  200     NPUNCH=    2
     EXTRAP=T  DAMP=F  SHIFT=F  RSTRCT=F  DIIS=F  DEM=F  SOSCF=T
     DENSITY MATRIX CONV=  2.00E-05
     SOSCF WILL OPTIMIZE    9216 ORBITAL ROTATIONS, SOGTOL=   0.250
     MEMORY REQUIRED FOR RHF ITERS=    411168 WORDS.

                                                                                   NONZERO     BLOCKS
 ITER EX DEM     TOTAL ENERGY        E CHANGE  DENSITY CHANGE     ORB. GRAD      INTEGRALS    SKIPPED
   1  0  0     -205.7002933660  -205.7002933660   0.171310257   0.000000000              0          0
          ---------------START SECOND ORDER SCF---------------
   2  1  0     -207.0927380774    -1.3924447113   0.090893569   0.019325477              0          0
   3  2  0     -207.2015773873    -0.1088393099   0.071906792   0.020580726              0          0
   4  3  0     -207.2345144080    -0.0329370207   0.019334648   0.006857464              0          0
   5  4  0     -207.2416603117    -0.0071459037   0.018994417   0.004110169              0          0
   6  5  0     -207.2435014622    -0.0018411505   0.026733166   0.002925444              0          0
   7  6  0     -207.2453091841    -0.0018077219   0.025193499   0.001574111              0          0
   8  7  0     -207.2463562521    -0.0010470681   0.012322089   0.001762468              0          0
   9  8  0     -207.2469251196    -0.0005688675   0.036216559   0.001419536              0          0
  10  9  0     -207.2480036452    -0.0010785256   0.022222146   0.001351292              0          0
  11 10  0     -207.2486305585    -0.0006269133   0.045847086   0.001493247              0          0
  12 11  0     -207.2497120164    -0.0010814579   0.048987460   0.002394732              0          0
  13 12  0     -207.2507890558    -0.0010770394   0.051574372   0.002661484              0          0
  14 13  0     -207.2520490268    -0.0012599710   0.027033374   0.001829083              0          0
  15 14  0     -207.2528865178    -0.0008374910   0.042420589   0.001471500              0          0
  16 15  0     -207.2532975081    -0.0004109903   0.015969340   0.002798812              0          0
  17 16  0     -207.2537081397    -0.0004106316   0.010931565   0.000982444              0          0
  18 17  0     -207.2540455197    -0.0003373800   0.043247592   0.000896503              0          0
  19 18  0     -207.2546132030    -0.0005676833   0.028824431   0.001079145              0          0
  20 19  0     -207.2550099623    -0.0003967592   0.057999934   0.001077394              0          0
  21 20  0     -207.2556653417    -0.0006553794   0.012484148   0.001391682              0          0
  22 21  0     -207.2560437670    -0.0003784254   0.029952193   0.000967725              0          0
  23 22  0     -207.2563560819    -0.0003123149   0.007219415   0.000574915              0          0
  24 23  0     -207.2564514860    -0.0000954041   0.002443258   0.000283327              0          0
  25 24  0     -207.2564901343    -0.0000386483   0.003466385   0.000124493              0          0
  26 25  0     -207.2564992943    -0.0000091600   0.001141818   0.000073473              0          0
  27 26  0     -207.2565020736    -0.0000027794   0.000795629   0.000067081              0          0
  28 27  0     -207.2565034064    -0.0000013328   0.000622743   0.000048274              0          0
  29 28  0     -207.2565040032    -0.0000005967   0.000461080   0.000028849              0          0
  30 29  0     -207.2565043425    -0.0000003394   0.000340157   0.000020597              0          0
  31 30  0     -207.2565044873    -0.0000001448   0.000174096   0.000014659              0          0
  32 31  0     -207.2565045410    -0.0000000537   0.000082678   0.000006791              0          0
  33 32  0     -207.2565045605    -0.0000000195   0.000051026   0.000003591              0          0
  34 33  0     -207.2565045673    -0.0000000067   0.000026117   0.000002021              0          0
  35 34  0     -207.2565045693    -0.0000000021   0.000017764   0.000001045              0          0

          -----------------
          DENSITY CONVERGED
          -----------------
     TIME TO FORM FOCK OPERATORS=       0.0 SECONDS (       0.0 SEC/ITER)
     FOCK TIME ON FIRST ITERATION=       0.0, LAST ITERATION=       0.0
     TIME TO SOLVE SCF EQUATIONS=       0.2 SECONDS (       0.0 SEC/ITER)

 FINAL R-PM3 ENERGY IS     -207.2565045693 AFTER  35 ITERATIONS

 HEAT OF FORMATION IS      1266.98842 KCAL/MOL
 

          ------------
          EIGENVECTORS
          ------------

                      1          2          3          4          5
                   -1.9304    -1.8571    -1.7252    -1.6693    -1.5678
                     A          A          A          A          A   
    1  C  1  S    0.145718   0.205701  -0.094758  -0.162971  -0.002568
    2  C  1  X    0.013609   0.009831   0.000826  -0.023753   0.057104
    3  C  1  Y   -0.014499  -0.024493   0.047052   0.017142  -0.000466
    4  C  1  Z   -0.034448  -0.052961   0.020558   0.021710   0.046096
    5  C  2  S    0.137663   0.190827   0.003513  -0.099422  -0.084657
    6  C  2  X    0.020516   0.020236   0.025649  -0.016540   0.025788
    7  C  2  Y   -0.026897  -0.046017   0.048717   0.028279   0.038271
    8  C  2  Z   -0.013821  -0.019798  -0.011158  -0.017228   0.044524
    9  C  3  S    0.127744   0.134176   0.168598  -0.062649   0.035575
   10  C  3  X    0.016687   0.002384   0.060074  -0.007061   0.047310
   11  C  3  Y   -0.020332  -0.030868   0.014173   0.019938   0.013571
   12  C  3  Z   -0.014195  -0.014452  -0.036667  -0.024193   0.024362
   13  C  4  S    0.123477   0.133618  -0.055804  -0.166186   0.180420
   14  C  4  X   -0.004786  -0.025744   0.018578   0.002837   0.051655
   15  C  4  Y   -0.006698  -0.012503   0.042531   0.003790  -0.008522
   16  C  4  Z   -0.027985  -0.034765   0.014388   0.029268  -0.017266
   17  C  5  S    0.107954   0.060376   0.067810  -0.152870   0.219026
   18  C  5  X   -0.001046  -0.026044   0.011462  -0.001403   0.014907
   19  C  5  Y   -0.005454  -0.007307   0.036542   0.011377  -0.024771
   20  C  5  Z   -0.020495  -0.013123  -0.025570   0.020461  -0.025769
   21  C  6  S    0.120479   0.080094   0.195567  -0.110635   0.159206
   22  C  6  X    0.003741  -0.018607   0.020659  -0.011104   0.027580
   23  C  6  Y   -0.012807  -0.013075   0.012157   0.025551  -0.024847
   24  C  6  Z   -0.023328  -0.017422  -0.062373  -0.004083  -0.005504
   25  C  7  S    0.161804  -0.155824  -0.084501  -0.073827   0.076283
   26  C  7  X    0.009088  -0.025053  -0.004591  -0.000742  -0.064738
   27  C  7  Y    0.014400  -0.015343   0.017223  -0.035208  -0.023230
   28  C  7  Z   -0.040171   0.044416   0.029661  -0.003529   0.003979
   29  C  8  S    0.116054  -0.052105  -0.045612  -0.095927   0.218109
   30  C  8  X    0.006175  -0.030424  -0.000250   0.004051  -0.042955
   31  C  8  Y    0.006304  -0.003758   0.025000  -0.029283  -0.006087
   32  C  8  Z   -0.022025   0.014356   0.014762   0.003659  -0.029898
   33  C  9  S    0.111080  -0.023626   0.054650  -0.152716   0.200519
   34  C  9  X    0.004432  -0.028837  -0.001568  -0.000159  -0.033934
   35  C  9  Y   -0.001125   0.000696   0.034360  -0.006183  -0.021092
   36  C  9  Z   -0.021993   0.007927  -0.016945   0.024965  -0.024466
   37  C 10  S    0.139700  -0.086927   0.124831  -0.179102   0.067969
   38  C 10  X    0.007119  -0.027327  -0.015608  -0.003834  -0.055639
   39  C 10  Y   -0.012889   0.013242   0.018953   0.014826  -0.016081
   40  C 10  Z   -0.030575   0.022312  -0.037420   0.029427   0.014063
   41  C 11  S    0.141998   0.210763  -0.051054  -0.040247  -0.212516
   42  C 11  X    0.037121   0.051222  -0.000622  -0.002126  -0.042812
   43  C 11  Y   -0.020780  -0.035693   0.043980   0.009939   0.042497
   44  C 11  Z    0.010877   0.018959  -0.016507  -0.038462   0.007579
   45  C 12  S    0.130609   0.170860   0.025971   0.077246  -0.195044
   46  C 12  X    0.018206   0.014191   0.027457   0.038304  -0.005521
   47  C 12  Y   -0.013727  -0.024082   0.041684  -0.005506   0.036985
   48  C 12  Z    0.025990   0.040378  -0.008342  -0.019988  -0.038882
   49  C 13  S    0.123350   0.122042   0.176988   0.122614  -0.087710
   50  C 13  X    0.016679   0.002658   0.054785   0.035780   0.017790
   51  C 13  Y   -0.012266  -0.018553   0.021341  -0.022324   0.033974
   52  C 13  Z    0.023009   0.026654   0.034814  -0.008061  -0.008534
   53  C 14  S    0.132839   0.117712   0.262263   0.039279   0.007654
   54  C 14  X    0.019969   0.003252   0.069458   0.011821   0.030726
   55  C 14  Y   -0.025956  -0.029630  -0.027111  -0.012413   0.020042
   56  C 14  Z    0.006363   0.006877   0.008575  -0.039588   0.028764
   57  C 15  S    0.119903   0.087898  -0.011572   0.263426  -0.019205
   58  C 15  X    0.007158  -0.018798   0.005474   0.055000   0.046310
   59  C 15  Y    0.008662   0.007543   0.030282   0.020922  -0.023183
   60  C 15  Z    0.021572   0.021536  -0.015575   0.025570  -0.004237
   61  C 16  S    0.116573   0.048383   0.081361   0.287230  -0.003948
   62  C 16  X    0.001558  -0.020335  -0.001854   0.013605   0.022538
   63  C 16  Y   -0.003479   0.001092   0.039667  -0.029943  -0.017406
   64  C 16  Z    0.024111   0.011664   0.017019   0.048709  -0.000788
   65  C 17  S    0.131899   0.163357  -0.047838   0.131696  -0.161869
   66  C 17  X    0.006695  -0.006613   0.009287   0.049718   0.030710
   67  C 17  Y    0.009207   0.011573   0.027127   0.010684  -0.029089
   68  C 17  Z    0.030250   0.046146  -0.029071  -0.008224  -0.043852
   69  C 18  S    0.118081   0.072339   0.196547   0.197853  -0.033724
   70  C 18  X    0.001792  -0.016314   0.007283   0.013571   0.017343
   71  C 18  Y   -0.008189  -0.005330   0.021891  -0.042093   0.010634
   72  C 18  Z    0.026591   0.018852   0.056554   0.020585  -0.002338
   73  C 19  S    0.144517   0.203747  -0.141073   0.018888  -0.155894
   74  C 19  X    0.013879   0.009813  -0.013276   0.027491   0.022098
   75  C 19  Y    0.030079   0.045515  -0.011905   0.004380  -0.064350
   76  C 19  Z    0.024041   0.039314  -0.039932  -0.039369  -0.007737
   77  C 20  S    0.127498  -0.032625  -0.059254   0.286053   0.119538
   78  C 20  X   -0.000598  -0.027606  -0.006349  -0.033283  -0.010070
   79  C 20  Y    0.014473  -0.001777   0.015528   0.039889  -0.013015
   80  C 20  Z    0.021041  -0.011720  -0.024010   0.024393   0.033117
   81  C 21  S    0.118502   0.040928  -0.073680   0.264044   0.111185
   82  C 21  X    0.003974  -0.025751  -0.000745   0.024238   0.034716
   83  C 21  Y    0.020302   0.008543   0.007260   0.061281  -0.004335
   84  C 21  Z    0.012185   0.006110  -0.025266  -0.003786   0.029856
   85  C 22  S    0.111441   0.063392  -0.127262   0.122879   0.159989
   86  C 22  X   -0.000327  -0.029159   0.004173   0.023279   0.042654
   87  C 22  Y    0.022762   0.014980  -0.019449   0.029323   0.018885
   88  C 22  Z    0.003462   0.005439  -0.014875  -0.038372   0.028187
   89  C 23  S    0.131120   0.158058  -0.164062   0.011644   0.028773
   90  C 23  X   -0.003473  -0.023479   0.004627   0.028670   0.063916
   91  C 23  Y    0.032369   0.044588  -0.033759  -0.005278  -0.018562
   92  C 23  Z    0.007112   0.012707  -0.017999  -0.041917   0.025120
   93  C 24  S    0.150666  -0.114629  -0.118051   0.191639   0.116111
   94  C 24  X    0.004524  -0.025612  -0.003408  -0.035604  -0.041530
   95  C 24  Y    0.025715  -0.021763  -0.007090   0.031183  -0.007769
   96  C 24  Z    0.026892  -0.028416  -0.031781  -0.000171   0.026316
   97  C 25  S    0.176920  -0.183470  -0.110639   0.099706  -0.037149
   98  C 25  X   -0.015723   0.005418   0.012427  -0.044470  -0.039204
   99  C 25  Y    0.019058  -0.021995   0.008505  -0.007540  -0.047352
  100  C 25  Z    0.043621  -0.051794  -0.034374  -0.005562  -0.013132
  101  C 26  S    0.131371   0.067894   0.313474   0.031072   0.066957
  102  C 26  X   -0.002866  -0.021567  -0.005803  -0.008282   0.004571
  103  C 26  Y   -0.031706  -0.018578  -0.067522  -0.016030  -0.008670
  104  C 26  Z    0.007256   0.002698   0.016578  -0.040881   0.032712
  105  C 27  S    0.118208   0.033243   0.249712   0.113215   0.009205
  106  C 27  X   -0.009239  -0.025607  -0.033302  -0.020541  -0.002960
  107  C 27  Y   -0.017136  -0.003779  -0.018915  -0.038479   0.006793
  108  C 27  Z    0.019900   0.004758   0.052305  -0.014798   0.014634
  109  C 28  S    0.115970  -0.041067   0.166089   0.059441  -0.032906
  110  C 28  X   -0.004351  -0.020599  -0.035128  -0.026465  -0.021103
  111  C 28  Y   -0.016232   0.011480   0.000876  -0.027674   0.011500
  112  C 28  Z    0.019519  -0.012274   0.032091  -0.028273  -0.003813
  113  C 29  S    0.121091  -0.072604   0.060010   0.133472  -0.045275
  114  C 29  X   -0.003405  -0.017770  -0.022594  -0.041230  -0.021616
  115  C 29  Y   -0.009228   0.009673   0.028559  -0.033402  -0.010098
  116  C 29  Z    0.024676  -0.022011   0.011011  -0.002526  -0.018624
  117  C 30  S    0.119087  -0.019429   0.033000   0.273160   0.034274
  118  C 30  X   -0.005318  -0.023728  -0.011719  -0.044528  -0.009931
  119  C 30  Y   -0.003771   0.002201   0.033494  -0.025969  -0.025736
  120  C 30  Z    0.023243  -0.008731   0.000899   0.039322   0.008228
  121  C 31  S    0.159068  -0.159459  -0.024624   0.056024  -0.121177
  122  C 31  X   -0.008366  -0.003094  -0.010335  -0.034448  -0.019187
  123  C 31  Y   -0.011257   0.014368   0.032414  -0.024229  -0.015033
  124  C 31  Z    0.041306  -0.049260  -0.012483  -0.019731  -0.044524
  125  C 32  S    0.148728   0.228785  -0.141018  -0.071246  -0.198415
  126  C 32  X    0.047612   0.070670  -0.047222  -0.018464  -0.046646
  127  C 32  Y    0.015634   0.024552   0.005096  -0.008572  -0.036882
  128  C 32  Z    0.006226   0.011081  -0.015517  -0.034147   0.021061
  129  C 33  S    0.149013   0.223730  -0.165015  -0.135319  -0.073416
  130  C 33  X    0.033470   0.045045  -0.039823  -0.034144   0.025707
  131  C 33  Y    0.021066   0.032888  -0.006471  -0.026026  -0.023848
  132  C 33  Z   -0.030334  -0.048115   0.033131   0.006627   0.056853
  133  C 34  S    0.137960   0.182702  -0.176503  -0.103995   0.064781
  134  C 34  X    0.000986  -0.012866  -0.001348   0.007170   0.063917
  135  C 34  Y    0.035641   0.051031  -0.036753  -0.041970   0.006192
  136  C 34  Z   -0.020768  -0.029212   0.028937  -0.010090   0.024932
  137  C 35  S    0.145171  -0.105783  -0.142218   0.113590   0.191179
  138  C 35  X    0.013023  -0.034126  -0.006490  -0.009285  -0.039459
  139  C 35  Y    0.035216  -0.030810  -0.027753   0.019043   0.024983
  140  C 35  Z   -0.004158   0.002377   0.002232  -0.037881   0.009475
  141  C 36  S    0.112188  -0.006359  -0.128261   0.072612   0.251041
  142  C 36  X    0.004328  -0.032437   0.001298   0.008911   0.001879
  143  C 36  Y    0.021182  -0.001990  -0.019409   0.004130   0.044071
  144  C 36  Z   -0.006825   0.002222   0.007219  -0.043332   0.002579
  145  C 37  S    0.107232   0.019522  -0.102528  -0.049981   0.276646
  146  C 37  X   -0.001415  -0.033209   0.009562   0.013445  -0.004674
  147  C 37  Y    0.012539   0.001746   0.002402  -0.026932   0.030758
  148  C 37  Z   -0.015654  -0.000360   0.022342  -0.018364  -0.030558
  149  C 38  S    0.121225   0.118579  -0.126493  -0.120119   0.218687
  150  C 38  X   -0.010324  -0.036193   0.018874   0.019845   0.042707
  151  C 38  Y    0.014294   0.015622   0.002484  -0.032307   0.022112
  152  C 38  Z   -0.022924  -0.024832   0.030738   0.006221  -0.022772
  153  C 39  S    0.173974  -0.177511  -0.140486   0.024773   0.072904
  154  C 39  X   -0.004665  -0.007756   0.011147  -0.015089  -0.062312
  155  C 39  Y    0.045167  -0.050942  -0.023762  -0.016208  -0.015881
  156  C 39  Z   -0.024620   0.026129   0.024957  -0.033746  -0.001632
  157  C 40  S    0.185240  -0.210861  -0.124771   0.013635  -0.072526
  158  C 40  X   -0.047052   0.048787   0.038107  -0.019416  -0.015844
  159  C 40  Y    0.042020  -0.050994  -0.012597  -0.018728  -0.056890
  160  C 40  Z    0.005273  -0.007448  -0.002608  -0.023554   0.001433
  161  C 41  S    0.185743  -0.217575  -0.072359  -0.067720  -0.169520
  162  C 41  X   -0.064225   0.073121   0.024213   0.022460   0.044731
  163  C 41  Y    0.000285   0.000699   0.024257  -0.022749  -0.027544
  164  C 41  Z   -0.011123   0.013268   0.006830  -0.015891   0.020567
  165  C 42  S    0.137955  -0.090096   0.169015  -0.081564  -0.056847
  166  C 42  X   -0.004184  -0.017016  -0.039341  -0.009329  -0.034260
  167  C 42  Y   -0.032430   0.029234  -0.018464   0.015719   0.026429
  168  C 42  Z    0.014639  -0.014044   0.014441  -0.045674   0.004327
  169  C 43  S    0.169743  -0.167458   0.079953  -0.129851  -0.161436
  170  C 43  X   -0.022424   0.010915  -0.039967   0.022507  -0.006529
  171  C 43  Y   -0.041908   0.050294   0.013419   0.021103   0.051504
  172  C 43  Z    0.007939  -0.008816   0.003790  -0.032396   0.005433
  173  C 44  S    0.175147  -0.195378  -0.012312  -0.063096  -0.200703
  174  C 44  X   -0.041358   0.041387  -0.008926   0.011308   0.037787
  175  C 44  Y   -0.027600   0.035185   0.031417  -0.009912   0.020187
  176  C 44  Z    0.027589  -0.033427  -0.001229  -0.037844  -0.032473
  177  C 45  S    0.134047  -0.048639   0.215061  -0.130661   0.061538
  178  C 45  X    0.002551  -0.028791  -0.028260  -0.011979  -0.046615
  179  C 45  Y   -0.027641   0.017569  -0.024761   0.034008  -0.008363
  180  C 45  Z   -0.010365   0.001861  -0.028038  -0.014839   0.016402
  181  C 46  S    0.126880   0.034639   0.275287  -0.077666   0.131136
  182  C 46  X   -0.002926  -0.027560  -0.016049  -0.011997  -0.012344
  183  C 46  Y   -0.024392  -0.006316  -0.040684   0.021307  -0.029208
  184  C 46  Z   -0.013625  -0.006992  -0.044599  -0.023011   0.009992
  185  C 47  S    0.186393  -0.205085  -0.042651  -0.127723  -0.100745
  186  C 47  X   -0.022678   0.017593  -0.002278   0.024150  -0.025966
  187  C 47  Y   -0.000819   0.003150   0.032398  -0.026436  -0.026587
  188  C 47  Z   -0.049462   0.058464   0.015726   0.018151   0.053948
  189  C 48  S    0.176633  -0.172151   0.062175  -0.180988  -0.092890
  190  C 48  X   -0.010248  -0.003286  -0.029558   0.023990  -0.040650
  191  C 48  Y   -0.024342   0.031538   0.028677   0.010948   0.012251
  192  C 48  Z   -0.037562   0.040099  -0.014512   0.024403   0.051112

                      6          7          8          9         10
                   -1.5438    -1.4598    -1.3841    -1.3733    -1.3332
                     A          A          A          A          A   
    1  C  1  S   -0.052040   0.210676  -0.076721   0.148501  -0.068591
    2  C  1  X   -0.000445   0.029939   0.012626   0.063824   0.042768
    3  C  1  Y   -0.042185  -0.034460  -0.084215   0.008588   0.018260
    4  C  1  Z    0.019177  -0.015296   0.038264   0.018724   0.039950
    5  C  2  S   -0.158891   0.078329  -0.218746   0.075204  -0.058393
    6  C  2  X   -0.036759   0.017555  -0.028340   0.033205   0.048171
    7  C  2  Y   -0.016070  -0.032465   0.013339   0.000572   0.071482
    8  C  2  Z    0.023040   0.046977   0.013469   0.028815   0.023023
[...]
   87  C 22  Y   -0.150448  -0.186961   0.274979   0.047326   0.091738
   88  C 22  Z   -0.040931  -0.033803   0.063798   0.048253  -0.015921
   89  C 23  S    0.043173   0.074885   0.038176  -0.088783   0.040598
   90  C 23  X   -0.039311  -0.042041  -0.034812   0.087784  -0.051897
   91  C 23  Y   -0.086933  -0.027403  -0.260556   0.180002  -0.130645
   92  C 23  Z    0.005240   0.034331  -0.018127  -0.002355  -0.048658
   93  C 24  S    0.033728   0.040043  -0.062821  -0.087587   0.016852
   94  C 24  X    0.036221  -0.009039  -0.045032  -0.082188   0.018095
   95  C 24  Y   -0.195784  -0.104648   0.146054   0.156864  -0.050346
   96  C 24  Z   -0.128787  -0.036293   0.105098   0.074566  -0.042976
   97  C 25  S    0.019764   0.046682   0.040037   0.089621  -0.028247
   98  C 25  X    0.010572   0.076430   0.030305   0.117451  -0.037084
   99  C 25  Y    0.033014  -0.023468  -0.046305  -0.098916   0.036091
  100  C 25  Z    0.031255  -0.066309  -0.047998  -0.220340   0.001292
  101  C 26  S   -0.038440  -0.041258  -0.027178  -0.064989  -0.040097
  102  C 26  X    0.012260  -0.013549   0.012390  -0.015410  -0.002029
  103  C 26  Y   -0.124160  -0.088998  -0.053168  -0.145676  -0.100708
  104  C 26  Z    0.032234   0.006712   0.024728   0.019224   0.033839
  105  C 27  S    0.014108   0.026116   0.044520   0.046277   0.048402
  106  C 27  X   -0.014716  -0.006242  -0.010722  -0.020338   0.029583
  107  C 27  Y    0.009416   0.046240   0.053408   0.048515   0.151572
  108  C 27  Z   -0.006675  -0.011364  -0.080858  -0.026270  -0.101586
  109  C 28  S    0.032759   0.043745   0.028257   0.050784  -0.011263
  110  C 28  X    0.106563   0.074957   0.098111   0.104255   0.000750
  111  C 28  Y    0.158900   0.078733   0.072009   0.110179  -0.053780
  112  C 28  Z   -0.143133  -0.030135  -0.117937  -0.094373   0.091744
  113  C 29  S   -0.001383   0.005067  -0.057599  -0.029256   0.009090
  114  C 29  X    0.037992   0.057266  -0.085529   0.025210   0.055782
  115  C 29  Y   -0.022308  -0.026287  -0.129285  -0.062519   0.046212
  116  C 29  Z   -0.027537   0.003285   0.279106   0.112889  -0.116961
  117  C 30  S    0.009037   0.032820   0.014481   0.044986   0.015263
  118  C 30  X    0.019987   0.043883   0.047498   0.070532  -0.007619
  119  C 30  Y   -0.021239  -0.031119   0.015814  -0.015844  -0.001476
  120  C 30  Z    0.020635  -0.114052  -0.063656  -0.162772  -0.042429
  121  C 31  S   -0.049538  -0.081658  -0.031728  -0.098494  -0.010513
  122  C 31  X   -0.120269  -0.130342   0.017851  -0.134195  -0.050799
  123  C 31  Y   -0.051055  -0.032963   0.014114   0.005523  -0.036441
  124  C 31  Z    0.134808   0.142823  -0.135725   0.124671   0.083172
  125  C 32  S    0.040723   0.015684  -0.048760   0.039082   0.019478
  126  C 32  X   -0.124912  -0.044543   0.124484  -0.094269  -0.040359
  127  C 32  Y   -0.061637   0.000074   0.025497  -0.015053  -0.024993
  128  C 32  Z   -0.024245  -0.038923   0.018716   0.019606  -0.022917
  129  C 33  S   -0.020637   0.053693   0.030841  -0.070302   0.022894
  130  C 33  X    0.061797  -0.056429  -0.037287   0.090165  -0.010989
  131  C 33  Y    0.009512  -0.055943  -0.031437   0.067543   0.023290
  132  C 33  Z   -0.013493   0.083849  -0.002296  -0.072966   0.031474
  133  C 34  S   -0.035745  -0.111548  -0.020611   0.101082   0.011353
  134  C 34  X    0.021225   0.035942   0.005478  -0.040602   0.003644
  135  C 34  Y    0.151195   0.170555  -0.010888  -0.120155  -0.074891
  136  C 34  Z   -0.070559  -0.111973   0.031048   0.055930   0.072397
  137  C 35  S   -0.018214  -0.071845   0.023340   0.088622   0.021164
  138  C 35  X    0.006684  -0.041547  -0.016384   0.034906   0.017214
  139  C 35  Y   -0.019258   0.143626   0.022193  -0.142229   0.002038
  140  C 35  Z    0.035077  -0.006361  -0.038196  -0.024049   0.029162
  141  C 36  S   -0.009602  -0.055907  -0.011224   0.020063   0.006232
  142  C 36  X    0.028488   0.057431  -0.020719  -0.072955  -0.011545
  143  C 36  Y    0.122284   0.142491  -0.001619  -0.116640  -0.060743
  144  C 36  Z   -0.030180  -0.077763  -0.028740   0.066744   0.025827
  145  C 37  S    0.002853   0.049507   0.012104  -0.025908   0.005258
  146  C 37  X   -0.010615   0.075367   0.026111  -0.061245  -0.047961
  147  C 37  Y    0.004539  -0.134411  -0.172996   0.180288   0.001238
  148  C 37  Z   -0.033279   0.101538   0.166262  -0.149286   0.009812
  149  C 38  S    0.007574   0.078707  -0.010450  -0.054109  -0.063632
  150  C 38  X   -0.013619  -0.017107  -0.020139   0.031861  -0.007876
  151  C 38  Y   -0.068383  -0.076304   0.094421   0.006514   0.072492
  152  C 38  Z    0.055713   0.116767  -0.170946   0.027775  -0.185566
  153  C 39  S    0.005222   0.102342   0.024380  -0.068000  -0.066056
  154  C 39  X   -0.008331   0.063561   0.045010  -0.049945  -0.063512
  155  C 39  Y    0.031727  -0.180794  -0.095024   0.143864   0.080057
  156  C 39  Z   -0.038165   0.094910   0.057493  -0.064051  -0.046891
  157  C 40  S   -0.040584  -0.026848  -0.003598   0.038062   0.060707
  158  C 40  X   -0.085244  -0.003122  -0.007485   0.073812   0.102464
  159  C 40  Y    0.056770   0.062171   0.051156  -0.051641  -0.109908
  160  C 40  Z    0.009942   0.021045  -0.003417   0.035854  -0.005527
  161  C 41  S    0.037970  -0.079997  -0.056084  -0.081577  -0.016057
  162  C 41  X    0.108970  -0.121164  -0.085061  -0.133566  -0.061493
  163  C 41  Y   -0.025357  -0.042350  -0.034739  -0.007620   0.030437
  164  C 41  Z    0.052500  -0.039537  -0.020251  -0.022975   0.020675
  165  C 42  S   -0.028334  -0.074838   0.001490  -0.056775  -0.040428
  166  C 42  X   -0.062526  -0.036569   0.051535  -0.024622  -0.040049
  167  C 42  Y   -0.203836  -0.156206  -0.020314  -0.154295  -0.189824
  168  C 42  Z    0.074101   0.030753   0.017482   0.053795   0.016515
  169  C 43  S   -0.030959   0.012993  -0.097397  -0.033104  -0.007589
  170  C 43  X   -0.078993   0.012354  -0.178198  -0.001868   0.042941
  171  C 43  Y   -0.046082   0.051093  -0.185745   0.054910   0.076287
  172  C 43  Z   -0.005829   0.043377  -0.005457   0.008962  -0.030781
  173  C 44  S    0.046142   0.078550   0.102984   0.098866   0.007044
  174  C 44  X    0.152664   0.128415   0.184589   0.088911   0.002335
  175  C 44  Y    0.100429   0.013408   0.097320   0.000405  -0.015150
  176  C 44  Z   -0.105499  -0.053174  -0.066229  -0.047638  -0.004501
  177  C 45  S   -0.006777   0.055852   0.023400   0.020772   0.064383
  178  C 45  X    0.016738   0.068301   0.031446   0.043919   0.090932
  179  C 45  Y    0.009026   0.058080   0.076749  -0.013996   0.239774
  180  C 45  Z   -0.050642   0.048093   0.004140  -0.013512   0.078612
  181  C 46  S    0.013531   0.044215  -0.005911   0.064619  -0.014945
  182  C 46  X    0.000456  -0.025089   0.000171  -0.019967  -0.030351
  183  C 46  Y    0.041910   0.092637  -0.085682   0.179070  -0.075737
  184  C 46  Z   -0.019861   0.037505  -0.055314   0.041943  -0.043856
  185  C 47  S   -0.061562   0.125038   0.030985   0.029873  -0.067543
  186  C 47  X   -0.106003   0.134803   0.044032   0.054840  -0.090768
  187  C 47  Y    0.014696  -0.019729  -0.030254  -0.010538  -0.006277
  188  C 47  Z   -0.131593   0.156604   0.015670   0.002479  -0.167818
  189  C 48  S    0.032456  -0.062994   0.034383   0.015582   0.058143
  190  C 48  X    0.050733  -0.082277   0.039144   0.023439   0.092893
  191  C 48  Y    0.002777  -0.031711   0.054397   0.035178   0.065134
  192  C 48  Z    0.009534  -0.078450  -0.017932   0.028892   0.114238

                    106
                   -0.0472
                     A   
    1  C  1  S    0.103555
    2  C  1  X   -0.084541
    3  C  1  Y    0.011095
    4  C  1  Z    0.126410
    5  C  2  S   -0.039701
    6  C  2  X   -0.015199
    7  C  2  Y    0.099700
    8  C  2  Z    0.012049
    9  C  3  S   -0.080426
   10  C  3  X    0.105955
   11  C  3  Y   -0.241749
   12  C  3  Z   -0.096362
   13  C  4  S   -0.072573
   14  C  4  X    0.042285
   15  C  4  Y    0.001571
   16  C  4  Z   -0.158471
   17  C  5  S   -0.018442
   18  C  5  X   -0.019180
   19  C  5  Y   -0.047224
   20  C  5  Z    0.014086
   21  C  6  S    0.056419
   22  C  6  X   -0.073267
   23  C  6  Y    0.082900
   24  C  6  Z    0.102932
   25  C  7  S    0.072211
   26  C  7  X    0.044217
   27  C  7  Y   -0.151218
   28  C  7  Z    0.255567
   29  C  8  S   -0.050808
   30  C  8  X   -0.035434
   31  C  8  Y    0.067338
   32  C  8  Z   -0.233695
   33  C  9  S    0.007544
   34  C  9  X   -0.033921
   35  C  9  Y   -0.044843
   36  C  9  Z    0.007851
   37  C 10  S    0.058091
   38  C 10  X    0.041380
   39  C 10  Y    0.103197
   40  C 10  Z    0.159679
   41  C 11  S    0.065136
   42  C 11  X   -0.136495
   43  C 11  Y    0.076194
   44  C 11  Z   -0.058242
   45  C 12  S   -0.076323
   46  C 12  X    0.211635
   47  C 12  Y   -0.051836
   48  C 12  Z    0.165573
   49  C 13  S    0.000558
   50  C 13  X   -0.077948
   51  C 13  Y    0.011287
   52  C 13  Z   -0.099953
   53  C 14  S    0.058213
   54  C 14  X   -0.084394
   55  C 14  Y    0.119135
   56  C 14  Z    0.007793
   57  C 15  S   -0.001031
   58  C 15  X    0.009152
   59  C 15  Y   -0.024188
   60  C 15  Z   -0.083854
   61  C 16  S   -0.024010
   62  C 16  X    0.018247
   63  C 16  Y   -0.002460
   64  C 16  Z    0.041287
   65  C 17  S    0.032690
   66  C 17  X   -0.036787
   67  C 17  Y    0.033285
   68  C 17  Z   -0.032814
   69  C 18  S    0.022835
   70  C 18  X    0.005403
   71  C 18  Y    0.006866
   72  C 18  Z   -0.025930
   73  C 19  S    0.009875
   74  C 19  X   -0.009414
   75  C 19  Y   -0.048596
   76  C 19  Z   -0.015165
   77  C 20  S   -0.008974
   78  C 20  X   -0.022380
   79  C 20  Y   -0.003931
   80  C 20  Z   -0.022585
   81  C 21  S   -0.013573
   82  C 21  X   -0.001250
   83  C 21  Y    0.067102
   84  C 21  Z    0.058057
   85  C 22  S    0.029418
   86  C 22  X   -0.021659
   87  C 22  Y    0.001565
   88  C 22  Z   -0.009068
   89  C 23  S   -0.055820
   90  C 23  X    0.019672
   91  C 23  Y    0.104550
   92  C 23  Z   -0.014425
   93  C 24  S    0.051114
   94  C 24  X    0.012445
   95  C 24  Y   -0.094228
   96  C 24  Z   -0.018541
   97  C 25  S   -0.037132
   98  C 25  X   -0.000678
   99  C 25  Y    0.024142
  100  C 25  Z   -0.035519
  101  C 26  S   -0.013125
  102  C 26  X    0.008040
  103  C 26  Y   -0.060178
  104  C 26  Z   -0.000205
  105  C 27  S   -0.014074
  106  C 27  X   -0.021348
  107  C 27  Y   -0.061612
  108  C 27  Z    0.075249
  109  C 28  S    0.021960
  110  C 28  X    0.061766
  111  C 28  Y    0.112966
  112  C 28  Z   -0.092839
  113  C 29  S    0.016402
  114  C 29  X    0.033630
  115  C 29  Y   -0.003563
  116  C 29  Z   -0.051976
  117  C 30  S   -0.003261
  118  C 30  X   -0.015640
  119  C 30  Y   -0.004500
  120  C 30  Z    0.038844
  121  C 31  S   -0.028110
  122  C 31  X   -0.095369
  123  C 31  Y   -0.058599
  124  C 31  Z    0.106465
  125  C 32  S    0.019815
  126  C 32  X   -0.022126
  127  C 32  Y   -0.017288
  128  C 32  Z    0.038258
  129  C 33  S   -0.081928
  130  C 33  X    0.093824
  131  C 33  Y    0.066543
  132  C 33  Z   -0.108687
  133  C 34  S    0.067682
  134  C 34  X   -0.053391
  135  C 34  Y   -0.092805
  136  C 34  Z    0.046678
  137  C 35  S   -0.041536
  138  C 35  X    0.003453
  139  C 35  Y    0.219136
  140  C 35  Z    0.034614
  141  C 36  S    0.038556
  142  C 36  X    0.011000
  143  C 36  Y   -0.229189
  144  C 36  Z    0.099796
  145  C 37  S   -0.035552
  146  C 37  X   -0.000478
  147  C 37  Y    0.075768
  148  C 37  Z   -0.027583
  149  C 38  S    0.020700
  150  C 38  X    0.030654
  151  C 38  Y    0.018666
  152  C 38  Z    0.053619
  153  C 39  S   -0.062609
  154  C 39  X   -0.053819
  155  C 39  Y    0.010264
  156  C 39  Z   -0.041904
  157  C 40  S    0.085402
  158  C 40  X    0.091376
  159  C 40  Y   -0.083533
  160  C 40  Z    0.022645
  161  C 41  S   -0.082427
  162  C 41  X   -0.143045
  163  C 41  Y   -0.002052
  164  C 41  Z    0.002285
  165  C 42  S   -0.013214
  166  C 42  X   -0.044914
  167  C 42  Y   -0.097565
  168  C 42  Z    0.049266
  169  C 43  S    0.011382
  170  C 43  X    0.009720
  171  C 43  Y    0.054643
  172  C 43  Z    0.033849
  173  C 44  S    0.060526
  174  C 44  X    0.113772
  175  C 44  Y    0.004660
  176  C 44  Z   -0.042105
  177  C 45  S   -0.028847
  178  C 45  X   -0.032201
  179  C 45  Y   -0.088153
  180  C 45  Z   -0.061556
  181  C 46  S    0.017962
  182  C 46  X    0.009916
  183  C 46  Y    0.057352
  184  C 46  Z    0.021869
  185  C 47  S    0.022449
  186  C 47  X    0.014695
  187  C 47  Y    0.029693
  188  C 47  Z   -0.057081
  189  C 48  S   -0.054514
  190  C 48  X   -0.058898
  191  C 48  Y   -0.094296
  192  C 48  Z   -0.085782

     ----------------------------------------------------------------
     PROPERTY VALUES FOR THE RHF   SELF-CONSISTENT FIELD WAVEFUNCTION
     ----------------------------------------------------------------

                    -------------
                    MOPAC CHARGES
                    -------------
         ATOM NO.   TYPE          CHARGE        ATOM  ELECTRON DENSITY
           1         C             -0.0106          4.0106
           2         C              0.0201          3.9799
           3         C             -0.0104          4.0104
           4         C              0.0088          3.9912
           5         C              0.0009          3.9991
           6         C              0.0226          3.9774
           7         C              0.0009          3.9991
           8         C              0.0101          3.9899
           9         C              0.0287          3.9713
          10         C             -0.0248          4.0248
          11         C             -0.0185          4.0185
          12         C              0.0305          3.9695
          13         C             -0.0203          4.0203
          14         C             -0.0106          4.0106
          15         C             -0.0479          4.0479
          16         C              0.0241          3.9759
          17         C              0.0368          3.9632
          18         C              0.0265          3.9735
          19         C             -0.0368          4.0368
          20         C             -0.0325          4.0325
          21         C              0.0169          3.9831
          22         C              0.0093          3.9907
          23         C              0.0140          3.9860
          24         C              0.0271          3.9729
          25         C             -0.0278          4.0278
          26         C             -0.0116          4.0116
          27         C             -0.0206          4.0206
          28         C              0.0361          3.9639
          29         C              0.0123          3.9877
          30         C             -0.0121          4.0121
          31         C              0.0190          3.9810
          32         C              0.0206          3.9794
          33         C             -0.0325          4.0325
          34         C             -0.0168          4.0168
          35         C              0.0023          3.9977
          36         C              0.0090          3.9910
          37         C             -0.0098          4.0098
          38         C              0.0093          3.9907
          39         C             -0.0099          4.0099
          40         C             -0.0047          4.0047
          41         C             -0.0116          4.0116
          42         C             -0.0260          4.0260
          43         C              0.0165          3.9835
          44         C             -0.0055          4.0055
          45         C              0.0148          3.9852
          46         C             -0.0176          4.0176
          47         C              0.0050          3.9950
          48         C             -0.0032          4.0032

          ---------------------
          ELECTROSTATIC MOMENTS
          ---------------------

 POINT   1           X           Y           Z (ANGS)      CHARGE
                 0.000000    0.000000    0.000000        0.00 (A.U.)
         DX          DY          DZ         /D/  (DEBYE)
     0.178309    0.208495   -0.087261    0.287886
 ...... END OF PROPERTY EVALUATION ......
 CPU     0: STEP CPU TIME=     0.08 TOTAL CPU TIME=          1.3 (      0.0 MIN)
 TOTAL WALL CLOCK TIME=          1.7 SECONDS, CPU UTILIZATION IS    76.49%
  $VIB   
          IVIB=   0 IATOM=   0 ICOORD=   0 E=     -207.7339513660
 -3.106945964E-05 7.548391876E-05 2.593956400E-05-7.820774729E-05 1.289685972E-04
  1.114667110E-04 1.908772942E-04-3.393540418E-04-8.426130733E-05 1.931597334E-04
  2.072423716E-05-1.309518493E-04 2.874328680E-05-2.545873804E-04-2.183111722E-04
 -1.788139016E-04 3.691565218E-04 1.456707054E-04 2.926086785E-05-1.044884605E-04
 -1.047412989E-04-1.369559301E-04-1.116837639E-04-1.226962998E-04 2.487839275E-05
  8.068874590E-05 3.113864792E-04-1.071003596E-04-8.353557363E-05-1.050814775E-04
  1.142664715E-04 8.660123472E-05-1.020993441E-04-1.805270385E-04-2.243131209E-05
 -5.220919029E-05 1.528723015E-04-1.066520467E-04 1.980337597E-04-1.327298340E-04
  2.079644421E-04-7.554201842E-05-6.157762186E-05-3.931253757E-05-8.217860833E-05
  3.778771946E-05 6.184441238E-05 2.096839513E-04 1.257948329E-04 7.816774315E-05
  8.374149397E-05-6.113950051E-06 1.449447817E-04-1.623444200E-04 7.763658373E-06
 -6.800021129E-05 2.078971707E-05 2.362968548E-05-8.971431130E-05 1.448672385E-04
  2.574374125E-05-1.219388169E-04-4.017342143E-05 1.580743913E-04 3.551375188E-04
  1.338416127E-04-9.989009258E-05-1.104272190E-04-3.193103786E-05-1.559318923E-04
  2.158431819E-05 3.881621017E-05 1.458289960E-05 1.146304628E-04-4.186198215E-05
  4.504943405E-05-3.846532259E-05-6.610495918E-05-4.975701212E-05-1.018038174E-04
  7.879793425E-05 6.172942354E-05-1.124139574E-05-1.436173222E-04-3.189246584E-04
  1.480467347E-05 2.331373646E-04 5.831618292E-05 1.010847088E-04-2.464134821E-04
  1.777576150E-04-8.445471537E-05-7.900438382E-05-2.620576103E-05-9.988970291E-05
  6.328325486E-05-8.563777207E-05-3.032309342E-05-3.372937730E-05 1.362516567E-04
  4.908398694E-05-7.948324789E-05-9.787490268E-05 1.050878200E-04-4.680818044E-05
  9.843192754E-05-4.117836248E-04-1.951868525E-05 1.105757637E-04 3.606433418E-04
 -2.366420466E-04-2.325523207E-04-9.715807268E-05 3.472772324E-04-1.737076930E-04
  3.415870964E-05 2.303859164E-04 1.781092032E-04 9.818742909E-05-2.049517977E-05
  2.280221231E-04-1.665352220E-04-4.371151495E-05 6.389836901E-05 1.521660548E-04
  5.548365418E-05-4.437938736E-05-1.134313867E-04-1.945648680E-04-2.421331298E-06
  1.832750322E-04-3.862385646E-05-7.112290597E-05-1.171544944E-04-5.484086027E-05
  6.918477555E-05-8.462709982E-05-2.370575007E-05-1.130997464E-04-5.614018261E-05
  1.172175976E-04 2.983956781E-05 2.074511426E-05 1.318267447E-04
  1.783088965E-01 2.084946547E-01-8.726137953E-02
 ......END OF GEOMETRY SEARCH......
 CPU     0: STEP CPU TIME=     0.02 TOTAL CPU TIME=          1.3 (      0.0 MIN)
 TOTAL WALL CLOCK TIME=          1.7 SECONDS, CPU UTILIZATION IS    76.69%
                580000  WORDS OF DYNAMIC MEMORY USED
 EXECUTION OF GAMESS TERMINATED NORMALLY 21:10:53 27-MAY-2023    
 DDI: 263640 bytes (0.3 MB / 0 MWords) used by master data server.

 ----------------------------------------
 CPU timing information for all processes
 ========================================
 0: 0.859375 + 0.468750 = 1.328125
 1: 0.906250 + 0.187500 = 1.093750
 2: 0.562500 + 0.531250 = 1.093750
 3: 0.609375 + 0.656250 = 1.265625
 ----------------------------------------
           Disk usage (in bytes)       
 ========================================
 ----------------------------------------
            Local date and time          
 ========================================
27.05.2023 - 21:10:53,89                          
