          *******************************************************
          *                                                     *
          *          GAMESS VERSION = 30 SEP 2022 (R2)          *
          *                                                     *
          *              doi.org/10.1063/5.0005188              *
          *                                                     *
          *************** 64 BIT WINDOWS VERSION ****************

  GAMESS HAS BEEN MADE POSSIBLE WITH IMPORTANT CONTRIBUTIONS FROM
  THE FOLLOWING INDIVIDUALS (IN ALPHABETICAL ORDER):

     IVANA ADAMOVIC, CHRISTINE AIKENS, TOMOKO AKAMA,
     MELISA ALKAN, YURI ALEXEEV, YURIKO AOKI, POOJA ARORA,
     TOSHIO ASADA, ANDREY ASADCHEV, KIM K. BALDRIDGE,
     PRADIPTA BANDYOPADHYAY, TAYLOR A. BARNES, MARIA BARYSZ,
     ROB BELL, JONATHAN BENTZ, COLLEEN BERTONI,
     JERRY A. BOATZ, BRETT BODE, KURT BRORSEN, KURT R. BRORSEN,
     LAIMUTIS BYTAUTAS, CALEB CARLIN, LAURA CARRINGTON,
     GALINA CHABAN, BENOIT CHAMPAGNE, WEI CHEN, MAHITO CHIBA,
     DAN CHIPMAN, CHEOL HO CHOI, TANNER CULPITT,
     DIPAYAN DATTA, PAUL DAY, ALBERT DEFUSCO,
     NUWAN DESILVA, J. EMILIANO DEUSTUA,
     TIM DUDLEY, MICHEL DUPUIS, STEVEN T. ELBERT,
     DMITRI FEDOROV, KATHERINE FERRERAS, MICHAEL FILATOV,
     ALEX FINDLATER,GRAHAM FLETCHER, MARK FREITAG,
     CHRISTIAN FRIEDL, DAVID GARMER, 
     IGOR S. GERASIMOV, KURT GLAESEMANN,
     MARK S. GORDON, JEFFREY GOUR, FENG LONG GU,
     EMILIE B. GUIDEZ, ANASTASIA GUNINA, SHARON HAMMES-SCHIFFER,
     MASATAKE HARUTA, KIMIHIKO HIRAO, YASUHIRO IKABATA,
     TZVETELIN IORDANOV, STEPHAN IRLE, KAZUYA ISHIMURA,
     JOE IVANIC, FRANK JENSEN, JAN H. JENSEN, VISVALDAS KAIRYS,
     MUNEAKI KAMIYA, MICHIO KATOUDA, NAOAKI KAWAKAMI, DAN KEMP,
     BERNARD KIRTMAN, KAZUO KITAURA, MARIUSZ KLOBUKOWSKI,
     MASATO KOBAYASHI, KONSTANTIN KOMAROV, PRAKASHAN KORAMBATH,
     JACEK KORCHOWIEC, SHIRO KOSEKI, KAROL KOWALSKI,
     JIMMY KROMANN, STANISLAW KUCHARSKI, HENRY KURTZ,
     SAROM SOK LEANG, SEUNGHOON LEE, HUI LI, SHUHUA LI, WEI LI,
     JESSE LUTZ, ALEKSANDR O. LYKHIN, MARCIN MAKOWSKI,
     JOANI MATO, NIKITA MATSUNAGA, BENEDETTA MENNUCCI,
     GRANT MERRILL, NORIYUKI MINEZAWA, VLADIMIR MIRONOV,
     EISAKU MIYOSHI, JOHN A. MONTGOMERY JR., HIROTOSHI MORI,
     JONATHAN MULLIN, MONIKA MUSIAL, SHIGERU NAGASE,
     TAKESHI NAGATA, HIROMI NAKAI, TAKAHITO NAKAJIMA,
     YUYA NAKAJIMA, HARUYUKI NAKANO, HIROYA NAKATA, SEAN NEDD,
     HEATHER NETZLOFF, KIET A. NGUYEN, YOSHIO NISHIMOTO,
     BOSILJKA NJEGIC, RYAN OLSON, MIKE PAK, ROBERTO PEVERATI,
     BUU PHAM, PIOTR PIECUCH, ANNA POMOGAEVA, DAVID POOLE,
     SPENCER PRUITT, OLIVIER QUINET, LUKE ROSKOP,
     KLAUS RUEDENBERG, ANDREW SAND, TOSAPORN SATTASATHUCHANA,
     NOZOMI SAWADA, MICHAEL W. SCHMIDT, PATRICK E. SCHNEIDER,
     JUNJI SEINO, PRACHI SHARMA, JUN SHEN, JIM SHOEMAKER,
     YINAN SHU, DEJUN SI, JONATHAN SKONE, LYUDMILA SLIPCHENKO,
     TONY SMITH, JIE SONG, MARK SPACKMAN, CASPER STEINMANN,
     WALT STEVENS, PEIFENG SU, SHUJUN SU, CHET SWALINA,
     CHINAMI TAKASHIMA, TETSUYA TAKETSUGU, ZHEN TAO,
     NANDUN THELLAMUREGE, SEIKEN TOKURA, JACOPO TOMASI,
     TSUGUKI TOUMA, TAKAO TSUNEDA, HIROAKI UMEDA,
     JORGE LUIS GALVEZ VALLEJO, YALI WANG, SIMON WEBB,
     AARON WEST, THERESA L. WINDUS, MARTA WLOCH,
     PENG XU, KIYOSHI YAGI, SUSUMU YANAGISAWA, YANG YANG,
     SOOHAENG YOO, TAKESHI YOSHIKAWA, FEDERICO ZAHARIEV,
     TOBY ZENG

  WHO ARE SUPPORTED BY THEIR INSTITUTION/UNIVERSITY/COMPANY/GROUP
  (IN ALPHABETICAL ORDER):

     EP ANALYTICS,
     FACULTES UNIVERSITAIRES NOTRE-DAME DE LA PAIX,
     INSTITUTE FOR MOLECULAR SCIENCE, IOWA STATE UNIVERSITY,
     JACKSON STATE UNIVERSITY, JOHANNES KEPLER UNIVERSITY LINZ,
     KYUNGPOOK NATIONAL UNIVERSITY
     KYUSHU UNIVERSITY, MICHIGAN STATE UNIVERSITY,
     MIE UNIVERSITY, THE MOLECULAR SCIENCES SOFTWARE INSTITUTE,
     MOSCOW STATE UNIVERSITY,
     N. COPERNICUS UNIVERSITY, NAGOYA UNIVERSITY,
     NANJING UNIVERSITY, NAT. INST. OF ADVANCED INDUSTRIAL
     SCIENCE AND TECHNOLOGY, NATIONAL INST. OF STANDARDS AND
     TECHNOLOGY, NESMEYANOV INSTITUTE OF ORGANOELEMENT COMPOUNDS
     OF RUSSIAN ACADEMY OF SCIENCES, OSAKA PREFECTURE UNIVERSITY,
     PENNSYLVANIA STATE UNIVERSITY, TOKYO INSTITUTE OF TECHNOLOGY,
     UNIVERSITY OF AARHUS, UNIVERSITY OF ALBERTA,
     UNIVERSITY OF CALIFORNIA AT SANTA BARBARA,
     UNIVERSITY OF COPENHAGEN, UNIVERSITY OF IOWA,
     UNIVERSITY OF MEMPHIS, UNIVERSITY OF MINNESOTA,
     UNIVERSITY OF NEBRASKA, UNIVERSITY OF NEW ENGLAND,
     UNIVERSITY OF NOTRE DAME, UNIVERSITY OF PISA,
     UNIVERSITY OF SILESIA, UNIVERSITY OF TOKYO,
     UNIVERSITY OF ZURICH, WASEDA UNIVERSITY,
     YALE UNIVERSITY

  GAMESS SOFTWARE MANAGEMENT TEAM FOR THIS RELEASE:
     MARK S. GORDON (TEAM LEAD),
     BRETT BODE (SENIOR ADVISOR),
     GIUSEPPE BARCA,
     COLLEEN BERTONI,
     KRISTOPHER KEIPERT (ADVISOR),
     SAROM S. LEANG (DEVELOPMENT LEAD),
     BUU PHAM,
     JACKSON HAYES (WEBSITE ADMINISTRATOR),
     PENG XU


 PARALLEL VERSION RUNNING ON        2 PROCESSORS IN        2 NODES.

 EXECUTION OF GAMESS BEGUN 21:10:58 27-MAY-2023    

            ECHO OF THE FIRST FEW INPUT CARDS -
 INPUT CARD>! (Energy/Geometry) PM3                                                         
 INPUT CARD> $CONTRL                                                                        
 INPUT CARD>COORD=UNIQUE                                                                    
 INPUT CARD>ICHARG=0                                                                        
 INPUT CARD>MAXIT=200                                                                       
 INPUT CARD>MULT=1                                                                          
 INPUT CARD>RUNTYP=OPTIMIZE                                                                 
 INPUT CARD>SCFTYP=RHF                                                                      
 INPUT CARD>UNITS=ANGS                                                                      
 INPUT CARD>! DFTTYP=PBE                                                                    
 INPUT CARD> $END                                                                           
 INPUT CARD> $DFT                                                                           
 INPUT CARD>METHOD=GRID                                                                     
 INPUT CARD> $END                                                                           
 INPUT CARD> $BASIS                                                                         
 INPUT CARD>! EXTFIL=.T.                                                                    
 INPUT CARD>! GBASIS=GEGSSBAS                                                               
 INPUT CARD>! NGAUSS=6                                                                      
 INPUT CARD>GBASIS=PM3                                                                      
 INPUT CARD>! NDFUNC=1                                                                      
 INPUT CARD>! NPFUNC=1                                                                      
 INPUT CARD> $END                                                                           
 INPUT CARD> $SCF                                                                           
 INPUT CARD>DAMP=.F.                                                                        
 INPUT CARD>DEM=.F.                                                                         
 INPUT CARD>DIIS=.F.                                                                        
 INPUT CARD>DIRSCF=.T.                                                                      
 INPUT CARD>EXTRAP=.T.                                                                      
 INPUT CARD>RSTRCT=.F.                                                                      
 INPUT CARD>SHIFT=.F.                                                                       
 INPUT CARD>SOSCF=.T.                                                                       
 INPUT CARD> $END                                                                           
 INPUT CARD> $STATPT                                                                        
 INPUT CARD>METHOD=QA                                                                       
 INPUT CARD>NSTEP=100                                                                       
 INPUT CARD>OPTTOL=0.001                                                                    
 INPUT CARD> $END                                                                           
 INPUT CARD> $GUESS                                                                         
 INPUT CARD>GUESS=HUCKEL                                                                    
 INPUT CARD> $END                                                                           
 INPUT CARD> $SYSTEM                                                                        
 INPUT CARD>MWORDS=10                                                                       
 INPUT CARD> $END                                                                           
 INPUT CARD> $DATA                                                                          
 INPUT CARD>C48 FULLERENE                                                                   
 INPUT CARD>C1                                                                              
 INPUT CARD>C	6.0	4.508	-0.6266	0.0361                                                      
 INPUT CARD>C	6.0	3.5721	-1.6476	-0.0711                                                    
 INPUT CARD>C	6.0	1.3813	-1.731	-1.2144                                                     
 INPUT CARD>C	6.0	2.7633	-1.4349	-1.1779                                                    
     10000000 WORDS OF MEMORY AVAILABLE

     BASIS OPTIONS
     -------------
     GBASIS=PM3          IGAUSS=       0      POLAR=NONE    
     NDFUNC=       0     NFFUNC=       0     DIFFSP=       F
     NPFUNC=       0      DIFFS=       F     BASNAM=        


     RUN TITLE
     ---------
 C48 FULLERENE                                                                   

 THE POINT GROUP OF THE MOLECULE IS C1      
 THE ORDER OF THE PRINCIPAL AXIS IS     0

 ATOM      ATOMIC                      COORDINATES (BOHR)
           CHARGE         X                   Y                   Z
 C           6.0     8.5188847527       -1.1841023039        0.0682191082
 C           6.0     6.7502902007       -3.1135125374       -0.1343595177
 C           6.0     2.6102785068       -3.2711156847       -2.2948832395
 C           6.0     5.2218798219       -2.7115678198       -2.2259082409
 C           6.0     1.3350914103       -4.2879772387       -0.0799354093
 C           6.0    -5.2636427662       -3.2146128777       -1.9539766713
 C           6.0    -2.7637242570       -3.7803968384       -2.0091566701
 C           6.0     8.2720865387        0.3034899936       -2.0076448894
 C           6.0     6.2043483629       -0.5497212898       -3.3340435601
 C           6.0    -1.6081568156       -2.0641476964       -3.6407460879
 C           6.0     0.9473196376       -1.6690059924       -3.6981937580
 C           6.0     7.4706537473        2.6004519317       -1.1500872361
 C           6.0     1.8181053728        0.8668173106       -4.0175574499
 C           6.0     4.3843532641        1.2821790827       -3.6946032786
 C           6.0     5.2381314654        3.2539191783       -2.2319553641
 C           6.0     6.9369951283        2.5190047416        1.3604137386
 C           6.0     7.6779566881        0.1668628047        2.1813107076
 C           6.0     5.7899314538       -1.1464967568        3.2985167116
 C           6.0     4.4676901802        3.3746726689        1.8069559895
 C           6.0    -3.4427028044        3.9659679304        0.5368711531
 C           6.0    -0.8736203241        3.9748496426        1.0145938828
 C           6.0     0.0642506836        2.6507186430        3.2212269187
 C           6.0     2.6858675463        2.2032315291        3.4066090381
 C           6.0     3.4672692423       -0.2537902002        4.0621549832
 C           6.0    -3.4644346533       -0.2399952004       -4.0596983394
 C           6.0    -2.6741512452        2.2094676248       -3.3947037643
 C           6.0    -0.0587704782        2.6573326839       -3.1807867825
 C           6.0     0.8745651871        4.0230376553       -1.0053342255
 C           6.0     3.4368446539        4.0356988194       -0.5565243034
 C           6.0    -4.4990596316        3.3669247923       -1.8203730440
 C           6.0     2.7924480921       -3.7871998520        2.0679271484
 C           6.0     5.3033270119       -3.2786745887        1.9707952326
 C           6.0    -1.3082573013       -4.2772058006        0.1243439700
 C           6.0    -5.1946677676       -2.7021191898        2.1992631045
 C           6.0    -2.5877907676       -3.2648795890        2.3230401567
 C           6.0    -6.7525578719       -3.1093551402        0.1152732853
 C           6.0    -0.9352253913       -1.6674942116        3.7369331407
 C           6.0     1.6174164729       -2.0747301619        3.6862884842
 C           6.0    -6.2126631572       -0.5366821805        3.2559978768
 C           6.0    -5.2438006433        3.2191482201        2.2438606378
 C           6.0    -4.3784951136        1.2734863431        3.7146343741
 C           6.0    -1.8243414685        0.8622819682        4.0532732711
 C           6.0    -8.5241759854       -1.2088577143       -0.0833369161
 C           6.0    -8.2909837985        0.3567802665        1.9415044798
 C           6.0    -7.4882281989        2.6476950814        1.1264656613
 C           6.0    -5.8010808371       -1.1285443599       -3.3344215053
 C           6.0    -7.7100820299        0.1793349962       -2.2009638579
 C           6.0    -6.9872618396        2.5322328235       -1.3995310665

          INTERNUCLEAR DISTANCES (ANGS.)
          ------------------------------

                1 C          2 C          3 C          4 C          5 C     

   1 C       0.0000000    1.3891874 *  3.5439671    2.2740103 *  4.1419023  
   2 C       1.3891874 *  0.0000000    2.4725887 *  1.3872292 *  2.9323634 *
   3 C       3.5439671    2.4725887 *  0.0000000    1.4138357 *  1.4555841 *
   4 C       2.2740103 *  1.3872292 *  1.4138357 *  0.0000000    2.4931713 *
   5 C       4.1419023    2.9323634 *  1.4555841 *  2.4931713 *  0.0000000  
   6 C       7.4493857    6.4302290    4.1707106    5.5569453    3.6741609  
   7 C       6.2243821    5.1435394    2.8605402 *  4.2650258    2.4122487 *
   8 C       1.3577343 *  2.2137685 *  3.5465293    2.2725051 *  4.5187999  
   9 C       2.2032407 *  2.1888409 *  2.4481629 *  1.3866856 *  3.6766754  
  10 C       5.7260762    4.8285662    2.4286477 *  3.7068978    2.7131625 *
  11 C       4.4824029    3.6838484    1.4299020 *  2.4552014 *  2.3725307 *
  12 C       2.1758073 *  3.0946698    4.0787557    3.1051447    4.9142537  
  13 C       4.2925469    3.9333464    2.4086364 *  2.7800964 *  3.4420967  
  14 C       3.2334300    3.2446419    2.6899205 *  2.2949784 *  3.8666335  
  15 C       3.1640277    3.6367500    3.7225523    3.1568133    4.6358196  
  16 C       2.2379345 *  3.0853555    4.2862432    3.4765864    4.7269166  
  17 C       1.3998136 *  2.1808110 *  4.0139889    3.0738437    4.2726196  
  18 C       2.2378269 *  2.1544780 *  3.5855545    3.0532840    3.3936908  
  19 C       3.3559106    3.7818783    4.2479971    3.8841437    4.4930152  
  20 C       6.8960229    6.5768600    5.2126724    5.9705037    5.0573229  
  21 C       5.6927658    5.5422061    4.6009277    5.0857252    4.5629291  
  22 C       5.1883164    4.9975586    4.4895271    4.8795347    4.1214113  
  23 C       3.9826685    4.0066007    4.1828844    4.1772121    3.9641126  
  24 C       3.4431439    3.1999682    3.7512144    3.6913316    3.2611129  
  25 C       6.7255698    5.9870972    3.7119588    4.8765777    3.9337530  
  26 C       6.4549258    5.9819049    4.0705942    4.9621473    4.4045386  
  27 C       5.2622901    4.9907526    3.4722717    4.0169452    4.0919967  
  28 C       4.9273889    4.9134639    4.0259334    4.2907059    4.4318845  
  29 C       3.8692867    4.1757540    3.9985160    3.7975169    4.5499424  
  30 C       7.3657501    6.9277080    5.1532038    6.0707770    5.1757746  
  31 C       3.4928515    2.4231716 *  2.3267944 *  2.6720121 *  1.3988688 *
  32 C       2.2666361 *  1.3545963 *  2.6695186 *  2.2413992 *  2.4233245 *
  33 C       5.4518911    4.3108072    2.4944295 *  3.7648869    1.4029824 *
  34 C       7.3878005    6.4441766    4.7754632    5.9889843    3.7548266  
  35 C       6.0975387    5.1103697    3.6794063    4.7916128    2.4938808 *
  36 C       8.1453044    7.1466213    5.1168383    6.4600064    4.3262409  
  37 C       5.3724739    4.6176598    3.7984831    4.5692092    2.7287160 *
  38 C       4.1503797    3.4303918    3.2702781    3.6796578    2.3164798 *
  39 C       7.9833818    7.2203659    5.7026972    6.8083172    4.7968470  
  40 C       7.7327544    7.2868445    5.9024090    6.7908658    5.4234545  
  41 C       7.2107754    6.6497681    5.4381985    6.3355115    4.6727792  
  42 C       5.9647144    5.4704623    4.6450165    5.3404907    3.8738739  
  43 C       9.0191661    8.1455426    6.1055205    7.4047536    5.4658180  
  44 C       8.9875299    8.2421300    6.4799073    7.6571705    5.7561574  
  45 C       8.7278996    8.1554541    6.4533114    7.5118375    5.9731413  
  46 C       7.7888431    6.9343911    4.6260570    5.9220686    4.4745574  
  47 C       8.7015072    7.9238186    5.7586612    7.0122191    5.4551682  
  48 C       8.4735476    7.8880332    5.9539682    7.0450861    5.7365880  

                6 C          7 C          8 C          9 C         10 C     

   1 C       7.4493857    6.2243821    1.3577343 *  2.2032407 *  5.7260762  
   2 C       6.4302290    5.1435394    2.2137685 *  2.1888409 *  4.8285662  
   3 C       4.1707106    2.8605402 *  3.5465293    2.4481629 *  2.4286477 *
   4 C       5.5569453    4.2650258    2.2725051 *  1.3866856 *  3.7068978  
   5 C       3.6741609    2.4122487 *  4.5187999    3.6766754    2.7131625 *
   6 C       0.0000000    1.3566714 *  7.4008403    6.2729505    2.2156885 *
   7 C       1.3566714 *  0.0000000    6.2269403    5.0927342    1.3943526 *
   8 C       7.4008403    6.2269403    0.0000000    1.3761502 *  5.4454354  
   9 C       6.2729505    5.0927342    1.3761502 *  0.0000000    4.2142844  
  10 C       2.2156885 *  1.3943526 *  5.4454354    4.2142844    0.0000000  
  11 C       3.5104539    2.4297630 *  4.1126608    2.8507754 *  1.3687082 *
  12 C       7.4202562    6.3983575    1.3650038 *  2.1362503 *  5.5598040  
  13 C       4.4610488    3.6132940    3.5894822    2.4658127 *  2.3943043 *
  14 C       5.7076310    4.7202319    2.3016553 *  1.3797473 *  3.6321371  
  15 C       6.5285642    5.6391760    2.2426274 *  2.1570614 *  4.6476764  
  16 C       7.3461376    6.3752226    2.2472778 *  2.9930941 *  5.7735277  
  17 C       7.4088590    6.3096388    2.2400521 *  3.0446850    5.9188814  
  18 C       6.5679253    5.5063392    3.1934830    3.5307957    5.3894868  
  19 C       6.5297586    5.7495806    3.2816147    3.5437782    5.1895574  
  20 C       4.1357457    4.3298677    6.6332024    5.9972624    4.0015157  
  21 C       4.7263877    4.5169365    5.4548078    5.0056932    4.0536920  
  22 C       5.0082453    4.6348678    5.2975678    5.0456762    4.4937583  
  23 C       5.8277681    5.1532295    4.2376825    4.2793021    4.9163496  
  24 C       5.8254973    4.9675923    4.1071553    4.1762422    4.9746047  
  25 C       2.1508021 *  2.1965739 *  6.3114727    5.1335067    1.3949438 *
  26 C       3.2707183    3.2537405    5.9252921    4.9200554    2.3344256 *
  27 C       4.2027304    3.7468535    4.6229627    3.7244208    2.6408298 *
  28 C       5.0469503    4.5870359    4.4135725    3.9151822    3.7479473  
  29 C       6.0386144    5.3352129    3.3222344    3.1926438    4.4955964  
  30 C       3.5069353    3.8933651    6.9506153    6.0842557    3.3953072  
  31 C       4.7744624    3.6468610    4.2125457    3.7903138    3.9217419  
  32 C       5.9651396    4.7675628    3.2393870    3.1926689    4.7547417  
  33 C       2.4303928 *  1.3917491 *  5.7315329    4.8004815    2.3165316 *
  34 C       2.2147701 *  2.6343763 *  7.6334663    6.8012735    3.6423303  
  35 C       2.6698858 *  2.3105505 *  6.4686379    5.7160058    3.2607018  
  36 C       1.3501533 *  2.4177259 *  8.2302669    7.2234329    3.4157562  
  37 C       3.8711487    3.3811616    5.8367926    5.3502317    3.9259218  
  38 C       4.7467199    3.9081017    4.8024531    4.5104611    4.2363893  
  39 C       3.1402908    3.7470352    8.1675178    7.4388656    4.4620565  
  40 C       4.0652219    4.5284887    7.6549027    7.0278546    4.6059619  
  41 C       3.8546366    4.1299904    7.3653145    6.7974980    4.5186965  
  42 C       4.2511387    4.0712259    6.2385674    5.8215766    4.3575637  
  43 C       2.2546568 *  3.4903401    8.9820663    7.9891918    4.1403851  
  44 C       3.2229638    4.2093566    9.0105371    8.1769068    4.7826204  
  45 C       3.6968460    4.5359298    8.5933150    7.8061495    4.7183804  
  46 C       1.3539235 *  2.2459933 *  7.5185100    6.3603796    2.2791388 *
  47 C       2.2178115 *  3.3544463    8.4582739    7.3976399    3.5236879  
  48 C       3.1884635    4.0321503    8.1669180    7.2414066    3.9274981  

               11 C         12 C         13 C         14 C         15 C     

   1 C       4.4824029    2.1758073 *  4.2925469    3.2334300    3.1640277  
   2 C       3.6838484    3.0946698    3.9333464    3.2446419    3.6367500  
   3 C       1.4299020 *  4.0787557    2.4086364 *  2.6899205 *  3.7225523  
   4 C       2.4552014 *  3.1051447    2.7800964 *  2.2949784 *  3.1568133  
   5 C       2.3725307 *  4.9142537    3.4420967    3.8666335    4.6358196  
   6 C       3.5104539    7.4202562    4.4610488    5.7076310    6.5285642  
   7 C       2.4297630 *  6.3983575    3.6132940    4.7202319    5.6391760  
   8 C       4.1126608    1.3650038 *  3.5894822    2.3016553 *  2.2426274 *
   9 C       2.8507754 *  2.1362503 *  2.4658127 *  1.3797473 *  2.1570614 *
  10 C       1.3687082 *  5.5598040    2.3943043 *  3.6321371    4.6476764  
  11 C       0.0000000    4.3403828    1.4288433 *  2.3972784 *  3.5417780  
  12 C       4.3403828    0.0000000    3.4772695    2.2286880 *  1.3575860 *
  13 C       1.4288433 *  3.4772695    0.0000000    1.3862478 *  2.4008095 *
  14 C       2.3972784 *  2.2286880 *  1.3862478 *  0.0000000    1.3754573 *
  15 C       3.5417780    1.3575860 *  2.4008095 *  1.3754573 *  0.0000000  
  16 C       4.7035838    1.3588670 *  4.0250646    3.0673532    2.1385147 *
  17 C       4.8280127    2.1859276 *  4.5291440    3.6130880    3.1288466  
  18 C       4.5113055    3.2037970    4.5322348    3.9874074    3.7513504  
  19 C       4.3681451    2.2675299 *  3.6368992    3.1150804    2.1767760 *
  20 C       4.3944340    5.8881953    4.0309157    4.9179590    4.8364108  
  21 C       4.0084712    4.6193786    3.4387483    3.9977686    3.6819989  
  22 C       4.3417764    4.5511003    4.0529004    4.3753997    3.9906453  
  23 C       4.3795610    3.5027954    4.0181688    3.8944141    3.3220955  
  24 C       4.3821498    3.7917038    4.4038630    4.2124485    3.9264739  
  25 C       2.4614612 *  6.1737124    2.8561868 *  4.2351963    5.0558653  
  26 C       2.8126015 *  5.5021264    2.5029036 *  3.7706354    4.2679082  
  27 C       2.3663830 *  4.1268771    1.4423156 *  2.4762105 *  2.8650619 *
  28 C       3.3323946    3.5715775    2.3621398 *  2.7528961 *  2.4328836 *
  29 C       3.6895260    2.2873601 *  2.6268135 *  2.2654215 *  1.3659420 *
  30 C       4.0491520    6.3569762    3.7785157    4.9294197    5.1576477  
  31 C       3.3941428    4.5226337    4.0867541    4.1478694    4.5536222  
  32 C       3.8779439    3.7042914    4.2726677    3.8793651    4.1106598  
  33 C       2.7242160 *  5.9398969    3.8666336    4.6704782    5.4256850  
  34 C       4.5389507    7.4789386    5.3067047    6.3140834    6.7758123  
  35 C       3.7901460    6.4298201    4.6340345    5.4353116    5.9042471  
  36 C       4.6103837    8.1380301    5.4571109    6.6481075    7.2899304  
  37 C       4.0586581    5.6191831    4.5563264    5.0819265    5.2374722  
  38 C       3.9296255    4.7185357    4.3650618    4.5337349    4.6293087  
  39 C       5.3157505    7.7860724    5.7815529    6.7750369    7.0124869  
  40 C       5.2260649    6.9714763    5.1471658    6.0732986    6.0313449  
  41 C       5.0749336    6.8144528    5.2479345    6.0725110    6.0743360  
  42 C       4.5575270    5.7115150    4.6857069    5.2586959    5.1605650  
  43 C       5.3702537    8.7191226    5.9576358    7.2146218    7.7400028  
  44 C       5.8271104    8.5821590    6.2156197    7.3570149    7.6474469  
  45 C       5.6269663    8.0070844    5.7053147    6.8193175    6.9724345  
  46 C       3.5877023    7.3860647    4.1835182    5.5420899    6.3122135  
  47 C       4.7510766    8.1538107    5.1457964    6.4750754    7.0424379  
  48 C       4.9043010    7.6520238    4.9404347    6.1744718    6.4956158  

               16 C         17 C         18 C         19 C         20 C     

   1 C       2.2379345 *  1.3998136 *  2.2378269 *  3.3559106    6.8960229  
   2 C       3.0853555    2.1808110 *  2.1544780 *  3.7818783    6.5768600  
   3 C       4.2862432    4.0139889    3.5855545    4.2479971    5.2126724  
   4 C       3.4765864    3.0738437    3.0532840    3.8841437    5.9705037  
   5 C       4.7269166    4.2726196    3.3936908    4.4930152    5.0573229  
   6 C       7.3461376    7.4088590    6.5679253    6.5297586    4.1357457  
   7 C       6.3752226    6.3096388    5.5063392    5.7495806    4.3298677  
   8 C       2.2472778 *  2.2400521 *  3.1934830    3.2816147    6.6332024  
   9 C       2.9930941 *  3.0446850    3.5307957    3.5437782    5.9972624  
  10 C       5.7735277    5.9188814    5.3894868    5.1895574    4.0015157  
  11 C       4.7035838    4.8280127    4.5113055    4.3681451    4.3944340  
  12 C       1.3588670 *  2.1859276 *  3.2037970    2.2675299 *  5.8881953  
  13 C       4.0250646    4.5291440    4.5322348    3.6368992    4.0309157  
  14 C       3.0673532    3.6130880    3.9874074    3.1150804    4.9179590  
  15 C       2.1385147 *  3.1288466    3.7513504    2.1767760 *  4.8364108  
  16 C       0.0000000    1.3753995 *  2.2765633 *  1.4029720 *  5.5629103  
  17 C       1.3753995 *  0.0000000    1.3530496 *  2.4097036 *  6.2793174  
  18 C       2.2765633 *  1.3530496 *  0.0000000    2.6146952 *  5.7727761  
  19 C       1.4029720 *  2.4097036 *  2.6146952 *  0.0000000    4.2511435  
  20 C       5.5629103    6.2793174    5.7727761    4.2511435    0.0000000  
  21 C       4.2083664    4.9920087    4.6086270    2.8750277 *  1.3828124 *
  22 C       3.7684922    4.2735604    3.6358844    2.4772364 *  2.4384893 *
  23 C       2.5022147 *  2.9257859 *  2.4173368 *  1.4106377 *  3.7005350  
  24 C       2.7510497 *  2.4505200 *  1.3773690 *  2.3219070 *  4.6730186  
  25 C       6.3760794    6.7616473    6.2748991    5.5601916    3.2970354  
  26 C       5.6767942    6.3154220    5.9799931    4.7159422    2.3147042 *
  27 C       4.4141876    5.1526616    5.0385291    3.5844094    2.7488965 *
  28 C       3.5344895    4.4686795    4.4086545    2.4388068 *  2.4261757 *
  29 C       2.2591633 *  3.3656116    3.6376273    1.4086095 *  3.6863776  
  30 C       6.2974254    6.9910222    6.5335144    5.1185469    1.4032023 *
  31 C       4.0108027    3.3264867    2.2119717 *  3.8946496    5.3269214  
  32 C       3.2037967    2.2171776 *  1.3538884 *  3.5495197    6.0574969  
  33 C       5.6920518    5.4155520    4.4356607    5.1508276    4.5112461  
  34 C       7.0031775    6.9790403    5.8995489    6.0438081    3.7529195  
  35 C       5.9187834    5.7283899    4.6018749    5.1341051    3.9672920  
  36 C       7.8602449    7.9065858    6.9259557    6.9158096    4.1395423  
  37 C       4.8829750    4.7322689    3.5769948    4.0418805    3.6763058  
  38 C       3.9176994    3.5109563    2.2712658 *  3.4028995    4.4906441  
  39 C       7.2139879    7.3819609    6.3597322    6.0675281    3.1458325  
  40 C       6.4733426    7.0261542    6.3039738    5.1449563    1.3713255 *
  41 C       6.1515345    6.4579948    5.5355677    4.9162023    2.2589946 *
  42 C       4.9289457    5.1382408    4.1862570    3.7771436    2.6255429 *
  43 C       8.4507666    8.6877036    7.7833050    7.3586191    3.8519178  
  44 C       8.1449339    8.4519503    7.5279718    6.9382693    3.2836742  
  45 C       7.6348075    8.1513978    7.3975728    6.3487057    2.2731068 *
  46 C       7.4387467    7.7373212    7.0669984    6.5275764    3.6086206  
  47 C       8.0722401    8.4667735    7.7457610    6.9917861    3.3486868  
  48 C       7.5117526    8.0859606    7.4623632    6.3104734    2.2680137 *

               21 C         22 C         23 C         24 C         25 C     

   1 C       5.6927658    5.1883164    3.9826685    3.4431439    6.7255698  
   2 C       5.5422061    4.9975586    4.0066007    3.1999682    5.9870972  
   3 C       4.6009277    4.4895271    4.1828844    3.7512144    3.7119588  
   4 C       5.0857252    4.8795347    4.1772121    3.6913316    4.8765777  
   5 C       4.5629291    4.1214113    3.9641126    3.2611129    3.9337530  
   6 C       4.7263877    5.0082453    5.8277681    5.8254973    2.1508021 *
   7 C       4.5169365    4.6348678    5.1532295    4.9675923    2.1965739 *
   8 C       5.4548078    5.2975678    4.2376825    4.1071553    6.3114727  
   9 C       5.0056932    5.0456762    4.2793021    4.1762422    5.1335067  
  10 C       4.0536920    4.4937583    4.9163496    4.9746047    1.3949438 *
  11 C       4.0084712    4.3417764    4.3795610    4.3821498    2.4614612 *
  12 C       4.6193786    4.5511003    3.5027954    3.7917038    6.1737124  
  13 C       3.4387483    4.0529004    4.0181688    4.4038630    2.8561868 *
  14 C       3.9977686    4.3753997    3.8944141    4.2124485    4.2351963  
  15 C       3.6819989    3.9906453    3.3220955    3.9264739    5.0558653  
  16 C       4.2083664    3.7684922    2.5022147 *  2.7510497 *  6.3760794  
  17 C       4.9920087    4.2735604    2.9257859 *  2.4505200 *  6.7616473  
  18 C       4.6086270    3.6358844    2.4173368 *  1.3773690 *  6.2748991  
  19 C       2.8750277 *  2.4772364 *  1.4106377 *  2.3219070 *  5.5601916  
  20 C       1.3828124 *  2.4384893 *  3.7005350    4.6730186    3.2970354  
  21 C       0.0000000    1.4494197 *  2.4554236 *  3.5895363    3.7502832  
  22 C       1.4494197 *  0.0000000    1.4107796 *  2.4089987 *  4.5466064  
  23 C       2.4554236 *  1.4107796 *  0.0000000    1.4077791 *  5.2796224  
  24 C       3.5895363    2.4089987 *  1.4077791 *  0.0000000    5.6503943  
  25 C       3.7502832    4.5466064    5.2796224    5.6503943    0.0000000  
  26 C       2.6879074 *  3.7962368    4.5824335    5.2755927    1.4067193 *
  27 C       2.3666147 *  3.3884272    3.7840070    4.5326680    2.4114197 *
  28 C       1.4138626 *  2.3903170 *  2.7012803 *  3.7676832    3.6018864  
  29 C       2.4280082 *  2.7782544 *  2.3444600 *  3.3356154    4.6789996  
  30 C       2.4565694 *  3.6183685    4.7419332    5.5796493    2.3123834 *
  31 C       4.5766637    3.7500696    3.2486784    2.1765410 *  5.0000680  
  32 C       5.0669271    4.2390105    3.3031831    2.1750935 *  5.8562990  
  33 C       4.3981561    4.0808659    4.3868240    3.9066000    3.2815126  
  34 C       4.2550854    4.0075703    4.9534775    4.8642252    3.6750344  
  35 C       3.9974461    3.4633576    4.0607530    3.6949659    3.7663809  
  36 C       4.8947220    5.0004948    5.9902384    5.9910950    3.1959576  
  37 C       3.3153269    2.3613326 *  2.8103221 *  2.4529114 *  4.4027457  
  38 C       3.7396261    2.6436878 *  2.3380273 *  1.3879234 *  4.9976239  
  39 C       3.8844346    3.7253620    4.9277075    5.1423127    4.1384298  
  40 C       2.4354033 *  2.8719150 *  4.2750090    5.0549651    3.9197239  
  41 C       2.7431463 *  2.4751815 *  3.7740588    4.2337276    4.2190523  
  42 C       2.3562071 *  1.4451081 *  2.5133583 *  2.8618090 *  4.4187165  
  43 C       4.9246838    5.2805830    6.4699824    6.7330816    3.4437661  
  44 C       4.3946210    4.6347525    5.9411119    6.3308372    4.0875698  
  45 C       3.5705504    4.1474795    5.5224616    6.1952128    3.7948306  
  46 C       4.4032645    5.0663428    6.0002847    6.2920232    1.3774334 *
  47 C       4.4740662    5.1834563    6.3416721    6.7839499    2.4625941 *
  48 C       3.5610820    4.4617291    5.7184613    6.4135138    2.7584325 *

               26 C         27 C         28 C         29 C         30 C     

   1 C       6.4549258    5.2622901    4.9273889    3.8692867    7.3657501  
   2 C       5.9819049    4.9907526    4.9134639    4.1757540    6.9277080  
   3 C       4.0705942    3.4722717    4.0259334    3.9985160    5.1532038  
   4 C       4.9621473    4.0169452    4.2907059    3.7975169    6.0707770  
   5 C       4.4045386    4.0919967    4.4318845    4.5499424    5.1757746  
   6 C       3.2707183    4.2027304    5.0469503    6.0386144    3.5069353  
   7 C       3.2537405    3.7468535    4.5870359    5.3352129    3.8933651  
   8 C       5.9252921    4.6229627    4.4135725    3.3222344    6.9506153  
   9 C       4.9200554    3.7244208    3.9151822    3.1926438    6.0842557  
  10 C       2.3344256 *  2.6408298 *  3.7479473    4.4955964    3.3953072  
  11 C       2.8126015 *  2.3663830 *  3.3323946    3.6895260    4.0491520  
  12 C       5.5021264    4.1268771    3.5715775    2.2873601 *  6.3569762  
  13 C       2.5029036 *  1.4423156 *  2.3621398 *  2.6268135 *  3.7785157  
  14 C       3.7706354    2.4762105 *  2.7528961 *  2.2654215 *  4.9294197  
  15 C       4.2679082    2.8650619 *  2.4328836 *  1.3659420 *  5.1576477  
  16 C       5.6767942    4.4141876    3.5344895    2.2591633 *  6.2974254  
  17 C       6.3154220    5.1526616    4.4686795    3.3656116    6.9910222  
  18 C       5.9799931    5.0385291    4.4086545    3.6376273    6.5335144  
  19 C       4.7159422    3.5844094    2.4388068 *  1.4086095 *  5.1185469  
  20 C       2.3147042 *  2.7488965 *  2.4261757 *  3.6863776    1.4032023 *
  21 C       2.6879074 *  2.3666147 *  1.4138626 *  2.4280082 *  2.4565694 *
  22 C       3.7962368    3.3884272    2.3903170 *  2.7782544 *  3.6183685  
  23 C       4.5824335    3.7840070    2.7012803 *  2.3444600 *  4.7419332  
  24 C       5.2755927    4.5326680    3.7676832    3.3356154    5.5796493  
  25 C       1.4067193 *  2.4114197 *  3.6018864    4.6789996    2.3123834 *
  26 C       0.0000000    1.4087013 *  2.4589103 *  3.6941975    1.4148457 *
  27 C       1.4087013 *  0.0000000    1.4461998 *  2.4253396 *  2.4860302 *
  28 C       2.4589103 *  1.4461998 *  0.0000000    1.3765595 *  2.8970034 *
  29 C       3.6941975    2.4253396 *  1.3765595 *  0.0000000    4.2671230  
  30 C       1.4148457 *  2.4860302 *  2.8970034 *  4.2671230    0.0000000  
  31 C       5.1763183    4.6498527    4.5559371    4.3797446    5.7839452  
  32 C       5.8580768    5.0348947    4.7856550    4.2125686    6.5802022  
  33 C       3.9715200    4.1185132    4.5808209    5.0780053    4.5025452  
  34 C       4.1589815    4.8513203    5.0848611    5.9751484    3.8696804  
  35 C       4.1891501    4.4827483    4.6187117    5.2355549    4.2598490  
  36 C       4.0037152    4.9901580    5.5576157    6.5951501    3.7704457  
  37 C       4.3929662    4.3420646    4.0351837    4.4297915    4.3934442  
  38 C       4.9333500    4.5013903    4.0903014    4.0525830    5.2210841  
  39 C       4.2431383    5.0063726    4.9972604    5.9999225    3.5079354  
  40 C       3.3222876    3.9821062    3.6905288    4.8460189    2.1879078 *
  41 C       3.9002746    4.3676164    4.0103389    4.9344792    3.1321450  
  42 C       4.0304221    4.0533414    3.4645547    4.0647182    3.6634614  
  43 C       3.9907434    5.1903822    5.7131331    6.9157473    3.3533575  
  44 C       4.2154001    5.2732120    5.4516196    6.6372530    3.2444815  
  45 C       3.5025120    4.5444391    4.6245505    5.8954294    2.2535918 *
  46 C       2.4205823 *  3.6405932    4.6292483    5.7902097    2.6030382 *
  47 C       2.9419139 *  4.2874166    5.0174194    6.3020922    2.4027353 *
  48 C       2.5205626 *  3.7862074    4.2395723    5.5911043    1.4065536 *

               31 C         32 C         33 C         34 C         35 C     

   1 C       3.4928515    2.2666361 *  5.4518911    7.3878005    6.0975387  
   2 C       2.4231716 *  1.3545963 *  4.3108072    6.4441766    5.1103697  
   3 C       2.3267944 *  2.6695186 *  2.4944295 *  4.7754632    3.6794063  
   4 C       2.6720121 *  2.2413992 *  3.7648869    5.9889843    4.7916128  
   5 C       1.3988688 *  2.4233245 *  1.4029824 *  3.7548266    2.4938808 *
   6 C       4.7744624    5.9651396    2.4303928 *  2.2147701 *  2.6698858 *
   7 C       3.6468610    4.7675628    1.3917491 *  2.6343763 *  2.3105505 *
   8 C       4.2125457    3.2393870    5.7315329    7.6334663    6.4686379  
   9 C       3.7903138    3.1926689    4.8004815    6.8012735    5.7160058  
  10 C       3.9217419    4.7547417    2.3165316 *  3.6423303    3.2607018  
  11 C       3.3941428    3.8779439    2.7242160 *  4.5389507    3.7901460  
  12 C       4.5226337    3.7042914    5.9398969    7.4789386    6.4298201  
  13 C       4.0867541    4.2726677    3.8666336    5.3067047    4.6340345  
  14 C       4.1478694    3.8793651    4.6704782    6.3140834    5.4353116  
  15 C       4.5536222    4.1106598    5.4256850    6.7758123    5.9042471  
  16 C       4.0108027    3.2037967    5.6920518    7.0031775    5.9187834  
  17 C       3.3264867    2.2171776 *  5.4155520    6.9790403    5.7283899  
  18 C       2.2119717 *  1.3538884 *  4.4356607    5.8995489    4.6018749  
  19 C       3.8946496    3.5495197    5.1508276    6.0438081    5.1341051  
  20 C       5.3269214    6.0574969    4.5112461    3.7529195    3.9672920  
  21 C       4.5766637    5.0669271    4.3981561    4.2550854    3.9974461  
  22 C       3.7500696    4.2390105    4.0808659    4.0075703    3.4633576  
  23 C       3.2486784    3.3031831    4.3868240    4.9534775    4.0607530  
  24 C       2.1765410 *  2.1750935 *  3.9066000    4.8642252    3.6949659  
  25 C       5.0000680    5.8562990    3.2815126    3.6750344    3.7663809  
  26 C       5.1763183    5.8580768    3.9715200    4.1589815    4.1891501  
  27 C       4.6498527    5.0348947    4.1185132    4.8513203    4.4827483  
  28 C       4.5559371    4.7856550    4.5808209    5.0848611    4.6187117  
  29 C       4.3797446    4.2125686    5.0780053    5.9751484    5.2355549  
  30 C       5.7839452    6.5802022    4.5025452    3.8696804    4.2598490  
  31 C       0.0000000    1.3566505 *  2.4153569 *  4.2659915    2.8636690 *
  32 C       1.3566505 *  0.0000000    3.6708082    5.5649853    4.1799646  
  33 C       2.4153569 *  3.6708082    0.0000000    2.4758695 *  1.4488517 *
  34 C       4.2659915    5.5649853    2.4758695 *  0.0000000    1.4127970 *
  35 C       2.8636690 *  4.1799646    1.4488517 *  1.4127970 *  0.0000000  
  36 C       5.1680727    6.4554417    2.9465417 *  1.3936439 *  2.4957711 *
  37 C       2.4350367 *  3.5353904    2.3665850 *  2.4581253 *  1.4279655 *
  38 C       1.3932891 *  2.2437575 *  2.7033611 *  3.7045943    2.4226073 *
  39 C       5.1051045    6.3011724    3.6605899    1.3841926 *  2.4510203 *
  40 C       5.6426565    6.5570628    4.6186042    3.1335967    3.7081423  
  41 C       4.7255444    5.7361648    3.8570716    2.2924999 *  2.6847557 *
  42 C       3.6229913    4.4991860    3.4342406    2.7751000 *  2.4023729 *
  43 C       6.2465730    7.4781460    4.1508339    2.2776589 *  3.5600120  
  44 C       6.2620032    7.4466103    4.5378104    2.3072661 *  3.5807904  
  45 C       6.4374261    7.4735610    4.9401053    3.1320779    4.1127871  
  46 C       5.5526445    6.6110370    3.4320150    3.0612591    3.6238417  
  47 C       6.3558565    7.4595266    4.3072289    3.0852479    4.0497480  
  48 C       6.4290402    7.4119641    4.7608822    3.4926963    4.3256605  

               36 C         37 C         38 C         39 C         40 C     

   1 C       8.1453044    5.3724739    4.1503797    7.9833818    7.7327544  
   2 C       7.1466213    4.6176598    3.4303918    7.2203659    7.2868445  
   3 C       5.1168383    3.7984831    3.2702781    5.7026972    5.9024090  
   4 C       6.4600064    4.5692092    3.6796578    6.8083172    6.7908658  
   5 C       4.3262409    2.7287160 *  2.3164798 *  4.7968470    5.4234545  
   6 C       1.3501533 *  3.8711487    4.7467199    3.1402908    4.0652219  
   7 C       2.4177259 *  3.3811616    3.9081017    3.7470352    4.5284887  
   8 C       8.2302669    5.8367926    4.8024531    8.1675178    7.6549027  
   9 C       7.2234329    5.3502317    4.5104611    7.4388656    7.0278546  
  10 C       3.4157562    3.9259218    4.2363893    4.4620565    4.6059619  
  11 C       4.6103837    4.0586581    3.9296255    5.3157505    5.2260649  
  12 C       8.1380301    5.6191831    4.7185357    7.7860724    6.9714763  
  13 C       5.4571109    4.5563264    4.3650618    5.7815529    5.1471658  
  14 C       6.6481075    5.0819265    4.5337349    6.7750369    6.0732986  
  15 C       7.2899304    5.2374722    4.6293087    7.0124869    6.0313449  
  16 C       7.8602449    4.8829750    3.9176994    7.2139879    6.4733426  
  17 C       7.9065858    4.7322689    3.5109563    7.3819609    7.0261542  
  18 C       6.9259557    3.5769948    2.2712658 *  6.3597322    6.3039738  
  19 C       6.9158096    4.0418805    3.4028995    6.0675281    5.1449563  
  20 C       4.1395423    3.6763058    4.4906441    3.1458325    1.3713255 *
  21 C       4.8947220    3.3153269    3.7396261    3.8844346    2.4354033 *
  22 C       5.0004948    2.3613326 *  2.6436878 *  3.7253620    2.8719150 *
  23 C       5.9902384    2.8103221 *  2.3380273 *  4.9277075    4.2750090  
  24 C       5.9910950    2.4529114 *  1.3879234 *  5.1423127    5.0549651  
  25 C       3.1959576    4.4027457    4.9976239    4.1384298    3.9197239  
  26 C       4.0037152    4.3929662    4.9333500    4.2431383    3.3222876  
  27 C       4.9901580    4.3420646    4.5013903    5.0063726    3.9821062  
  28 C       5.5576157    4.0351837    4.0903014    4.9972604    3.6905288  
  29 C       6.5951501    4.4297915    4.0525830    5.9999225    4.8460189  
  30 C       3.7704457    4.3934442    5.2210841    3.5079354    2.1879078 *
  31 C       5.1680727    2.4350367 *  1.3932891 *  5.1051045    5.6426565  
  32 C       6.4554417    3.5353904    2.2437575 *  6.3011724    6.5570628  
  33 C       2.9465417 *  2.3665850 *  2.7033611 *  3.6605899    4.6186042  
  34 C       1.3936439 *  2.4581253 *  3.7045943    1.3841926 *  3.1335967  
  35 C       2.4957711 *  1.4279655 *  2.4226073 *  2.4510203 *  3.7081423  
  36 C       0.0000000    3.7056292    4.8464972    2.1673206 *  3.6223405  
  37 C       3.7056292    0.0000000    1.3681444 *  2.8674076 *  3.5368824  
  38 C       4.8464972    1.3681444 *  0.0000000    4.2288146    4.6489975  
  39 C       2.1673206 *  2.8674076 *  4.2288146    0.0000000    2.1212932 *
  40 C       3.6223405    3.5368824    4.6489975    2.1212932 *  0.0000000  
  41 C       3.2535095    2.3963008 *  3.6341154    1.3851137 *  1.3694888 *
  42 C       3.9447338    1.4288144 *  2.4021626 *  2.4735918 *  2.3972076 *
  43 C       1.3789071 *  4.5025796    5.7437482    2.1783900 *  3.1655216  
  44 C       2.2273252 *  4.1474951    5.4772506    1.3845430 *  2.2181236 *
  45 C       3.1175389    4.3757950    5.5944512    2.1366073 *  1.3607765 *
  46 C       2.1644135 *  4.5512650    5.4281242    3.5083026    3.7541843  
  47 C       2.1880881 *  4.8663619    5.9574825    3.0183231    3.1342071  
  48 C       3.0936389    4.7522391    5.8240796    2.9790467 *  2.1680653 *

               41 C         42 C         43 C         44 C         45 C     

   1 C       7.2107754    5.9647144    9.0191661    8.9875299    8.7278996  
   2 C       6.6497681    5.4704623    8.1455426    8.2421300    8.1554541  
   3 C       5.4381985    4.6450165    6.1055205    6.4799073    6.4533114  
   4 C       6.3355115    5.3404907    7.4047536    7.6571705    7.5118375  
   5 C       4.6727792    3.8738739    5.4658180    5.7561574    5.9731413  
   6 C       3.8546366    4.2511387    2.2546568 *  3.2229638    3.6968460  
   7 C       4.1299904    4.0712259    3.4903401    4.2093566    4.5359298  
   8 C       7.3653145    6.2385674    8.9820663    9.0105371    8.5933150  
   9 C       6.7974980    5.8215766    7.9891918    8.1769068    7.8061495  
  10 C       4.5186965    4.3575637    4.1403851    4.7826204    4.7183804  
  11 C       5.0749336    4.5575270    5.3702537    5.8271104    5.6269663  
  12 C       6.8144528    5.7115150    8.7191226    8.5821590    8.0070844  
  13 C       5.2479345    4.6857069    5.9576358    6.2156197    5.7053147  
  14 C       6.0725110    5.2586959    7.2146218    7.3570149    6.8193175  
  15 C       6.0743360    5.1605650    7.7400028    7.6474469    6.9724345  
  16 C       6.1515345    4.9289457    8.4507666    8.1449339    7.6348075  
  17 C       6.4579948    5.1382408    8.6877036    8.4519503    8.1513978  
  18 C       5.5355677    4.1862570    7.7833050    7.5279718    7.3975728  
  19 C       4.9162023    3.7771436    7.3586191    6.9382693    6.3487057  
  20 C       2.2589946 *  2.6255429 *  3.8519178    3.2836742    2.2731068 *
  21 C       2.7431463 *  2.3562071 *  4.9246838    4.3946210    3.5705504  
  22 C       2.4751815 *  1.4451081 *  5.2805830    4.6347525    4.1474795  
  23 C       3.7740588    2.5133583 *  6.4699824    5.9411119    5.5224616  
  24 C       4.2337276    2.8618090 *  6.7330816    6.3308372    6.1952128  
  25 C       4.2190523    4.4187165    3.4437661    4.0875698    3.7948306  
  26 C       3.9002746    4.0304221    3.9907434    4.2154001    3.5025120  
  27 C       4.3676164    4.0533414    5.1903822    5.2732120    4.5444391  
  28 C       4.0103389    3.4645547    5.7131331    5.4516196    4.6245505  
  29 C       4.9344792    4.0647182    6.9157473    6.6372530    5.8954294  
  30 C       3.1321450    3.6634614    3.3533575    3.2444815    2.2535918 *
  31 C       4.7255444    3.6229913    6.2465730    6.2620032    6.4374261  
  32 C       5.7361648    4.4991860    7.4781460    7.4466103    7.4735610  
  33 C       3.8570716    3.4342406    4.1508339    4.5378104    4.9401053  
  34 C       2.2924999 *  2.7751000 *  2.2776589 *  2.3072661 *  3.1320779  
  35 C       2.6847557 *  2.4023729 *  3.5600120    3.5807904    4.1127871  
  36 C       3.2535095    3.9447338    1.3789071 *  2.2273252 *  3.1175389  
  37 C       2.3963008 *  1.4288144 *  4.5025796    4.1474951    4.3757950  
  38 C       3.6341154    2.4021626 *  5.7437482    5.4772506    5.5944512  
  39 C       1.3851137 *  2.4735918 *  2.1783900 *  1.3845430 *  2.1366073 *
  40 C       1.3694888 *  2.3972076 *  3.1655216    2.2181236 *  1.3607765 *
  41 C       0.0000000    1.3806828 *  3.2523222    2.3242816 *  2.2611111 *
  42 C       1.3806828 *  0.0000000    4.3084566    3.6097710    3.5035177  
  43 C       3.2523222    4.3084566    0.0000000    1.3600559 *  2.2079955 *
  44 C       2.3242816 *  3.6097710    1.3600559 *  0.0000000    1.3550447 *
  45 C       2.2611111 *  3.5035177    2.2079955 *  1.3550447 *  0.0000000  
  46 C       4.0120811    4.5630878    2.2445631 *  3.1856822    3.2191190  
  47 C       3.6390678    4.5590345    1.4074694 *  2.2155393 *  2.1955313 *
  48 C       3.1102298    4.0707992    2.2507290 *  2.2196954 *  1.3641034 *

               46 C         47 C         48 C     

   1 C       7.7888431    8.7015072    8.4735476  
   2 C       6.9343911    7.9238186    7.8880332  
   3 C       4.6260570    5.7586612    5.9539682  
   4 C       5.9220686    7.0122191    7.0450861  
   5 C       4.4745574    5.4551682    5.7365880  
   6 C       1.3539235 *  2.2178115 *  3.1884635  
   7 C       2.2459933 *  3.3544463    4.0321503  
   8 C       7.5185100    8.4582739    8.1669180  
   9 C       6.3603796    7.3976399    7.2414066  
  10 C       2.2791388 *  3.5236879    3.9274981  
  11 C       3.5877023    4.7510766    4.9043010  
  12 C       7.3860647    8.1538107    7.6520238  
  13 C       4.1835182    5.1457964    4.9404347  
  14 C       5.5420899    6.4750754    6.1744718  
  15 C       6.3122135    7.0424379    6.4956158  
  16 C       7.4387467    8.0722401    7.5117526  
  17 C       7.7373212    8.4667735    8.0859606  
  18 C       7.0669984    7.7457610    7.4623632  
  19 C       6.5275764    6.9917861    6.3104734  
  20 C       3.6086206    3.3486868    2.2680137 *
  21 C       4.4032645    4.4740662    3.5610820  
  22 C       5.0663428    5.1834563    4.4617291  
  23 C       6.0002847    6.3416721    5.7184613  
  24 C       6.2920232    6.7839499    6.4135138  
  25 C       1.3774334 *  2.4625941 *  2.7584325 *
  26 C       2.4205823 *  2.9419139 *  2.5205626 *
  27 C       3.6405932    4.2874166    3.7862074  
  28 C       4.6292483    5.0174194    4.2395723  
  29 C       5.7902097    6.3020922    5.5911043  
  30 C       2.6030382 *  2.4027353 *  1.4065536 *
  31 C       5.5526445    6.3558565    6.4290402  
  32 C       6.6110370    7.4595266    7.4119641  
  33 C       3.4320150    4.3072289    4.7608822  
  34 C       3.0612591    3.0852479    3.4926963  
  35 C       3.6238417    4.0497480    4.3256605  
  36 C       2.1644135 *  2.1880881 *  3.0936389  
  37 C       4.5512650    4.8663619    4.7522391  
  38 C       5.4281242    5.9574825    5.8240796  
  39 C       3.5083026    3.0183231    2.9790467 *
  40 C       3.7541843    3.1342071    2.1680653 *
  41 C       4.0120811    3.6390678    3.1102298  
  42 C       4.5630878    4.5590345    4.0707992  
  43 C       2.2445631 *  1.4074694 *  2.2507290 *
  44 C       3.1856822    2.2155393 *  2.2196954 *
  45 C       3.2191190    2.1955313 *  1.3641034 *
  46 C       0.0000000    1.3635492 *  2.2792811 *
  47 C       1.3635492 *  0.0000000    1.3698325 *
  48 C       2.2792811 *  1.3698325 *  0.0000000  

  * ... LESS THAN  3.000


 TOTAL NUMBER OF BASIS SET SHELLS             =   48
 NUMBER OF CARTESIAN GAUSSIAN BASIS FUNCTIONS =  192
 NUMBER OF ELECTRONS                          =  192
 CHARGE OF MOLECULE                           =    0
 SPIN MULTIPLICITY                            =    1
 NUMBER OF OCCUPIED ORBITALS (ALPHA)          =   96
 NUMBER OF OCCUPIED ORBITALS (BETA )          =   96
 TOTAL NUMBER OF ATOMS                        =   48
 THE NUCLEAR REPULSION ENERGY IS     6005.0216894479

 THE PARAMETERS USED IN THIS CALCULATION ARE DESCRIBED IN:

  C: (PM3): J. J. P. STEWART, J. COMP. CHEM. 10, 209 (1989).                    

 THERE ARE   48 HEAVY AND    0 LIGHT ATOMS,
 YIELDING A TOTAL OF    112800 MOPAC 2E- INTEGRALS.

     $CONTRL OPTIONS
     ---------------
 SCFTYP=RHF          RUNTYP=OPTIMIZE     EXETYP=RUN     
 MPLEVL=       0     CITYP =NONE         CCTYP =NONE         VBTYP =NONE    
 DFTTYP=NONE         TDDFT =NONE    
 MULT  =       1     ICHARG=       0     NZVAR =       0     COORD =UNIQUE  
 PP    =NONE         RELWFN=NONE         LOCAL =NONE         NUMGRD=       F
 ISPHER=      -1     NOSYM =       0     MAXIT =     200     UNITS =ANGS    
 PLTORB=       F     MOLPLT=       F     AIMPAC=       F     FRIEND=        
 NPRINT=       7     IREST =       0     GEOM  =INPUT   
 NORMF =       0     NORMP =       0     ITOL  =      20     ICUT  =       9
 INTTYP=BEST         GRDTYP=BEST         QMTTOL= 1.0E-06

     $SYSTEM OPTIONS
     ---------------
  REPLICATED MEMORY=    10000000 WORDS (ON EVERY NODE).
 DISTRIBUTED MEMDDI=           0 MILLION WORDS IN AGGREGATE,
 MEMDDI DISTRIBUTED OVER   2 PROCESSORS IS           0 WORDS/PROCESSOR.
 TOTAL MEMORY REQUESTED ON EACH PROCESSOR=    10000000 WORDS.
 TIMLIM=      525600.00 MINUTES, OR     365.0 DAYS.
 PARALL= T  BALTYP=  DLB     KDIAG=    0  COREFL= F
 MXSEQ2=     300 MXSEQ3=     150  mem10=         0  mem22=         0

          ----------------
          PROPERTIES INPUT
          ----------------

     MOMENTS            FIELD           POTENTIAL          DENSITY
 IEMOM =       1   IEFLD =       0   IEPOT =       0   IEDEN =       0
 WHERE =COMASS     WHERE =NUCLEI     WHERE =NUCLEI     WHERE =NUCLEI  
 OUTPUT=BOTH       OUTPUT=BOTH       OUTPUT=BOTH       OUTPUT=BOTH    
 IEMINT=       0   IEFINT=       0                     IEDINT=       0
                                                       MORB  =       0
          EXTRAPOLATION IN EFFECT
          SOSCF IN EFFECT
 ORBITAL PRINTING OPTION: NPREO=     1   192     2     1

     -------------------------------
     INTEGRAL TRANSFORMATION OPTIONS
     -------------------------------
     NWORD  =            0
     CUTTRF = 1.0E-09     MPTRAN =       0
     DIRTRF =       T     AOINTS =DUP     

          ----------------------
          INTEGRAL INPUT OPTIONS
          ----------------------
 NOPK  =       1 NORDER=       0 SCHWRZ=       T

     ------------------------------------------
     THE POINT GROUP IS C1 , NAXIS= 0, ORDER= 1
     ------------------------------------------

     DIMENSIONS OF THE SYMMETRY SUBSPACES ARE
 A   =  192

 ..... DONE SETTING UP THE RUN .....
 CPU     0: STEP CPU TIME=     0.00 TOTAL CPU TIME=          0.0 (      0.0 MIN)
 TOTAL WALL CLOCK TIME=          0.0 SECONDS, CPU UTILIZATION IS     0.00%


          -----------------------------
          STATIONARY POINT LOCATION RUN
          -----------------------------

 OBTAINING INITIAL HESSIAN, HESS=GUESS   
 CARTESIAN COORDINATE OPTIMIZATION USING BADGER'S RULE FORCE CONSTANT GUESS

          PARAMETERS CONTROLLING GEOMETRY SEARCH ARE
          METHOD =QA                  UPHESS =BFGS    
          NNEG   =         0          NFRZ   =         0
          NSTEP  =       100          IFOLOW =         1
          HESS   =GUESS               RESTAR =         F
          IHREP  =         0          HSSEND =         F
          NPRT   =         0          NPUN   =         0
          OPTTOL = 1.000E-03          RMIN   = 1.500E-03
          RMAX   = 1.000E-01          RLIM   = 7.000E-02
          DXMAX  = 3.000E-01          PURIFY =         F
          MOVIE  =         F          TRUPD  =         T
          TRMAX  = 5.000E-01          TRMIN  = 5.000E-02
          ITBMAT =         5          STPT   =         F
          STSTEP = 1.000E-02          PROJCT=          T

 BEGINNING GEOMETRY SEARCH POINT NSERCH=   0 ...

 COORDINATES OF ALL ATOMS ARE (ANGS)
   ATOM   CHARGE       X              Y              Z
 ------------------------------------------------------------
 C           6.0   4.5080000000  -0.6266000000   0.0361000000
 C           6.0   3.5721000000  -1.6476000000  -0.0711000000
 C           6.0   1.3813000000  -1.7310000000  -1.2144000000
 C           6.0   2.7633000000  -1.4349000000  -1.1779000000
 C           6.0   0.7065000000  -2.2691000000  -0.0423000000
 C           6.0  -2.7854000000  -1.7011000000  -1.0340000000
 C           6.0  -1.4625000000  -2.0005000000  -1.0632000000
 C           6.0   4.3774000000   0.1606000000  -1.0624000000
 C           6.0   3.2832000000  -0.2909000000  -1.7643000000
 C           6.0  -0.8510000000  -1.0923000000  -1.9266000000
 C           6.0   0.5013000000  -0.8832000000  -1.9570000000
 C           6.0   3.9533000000   1.3761000000  -0.6086000000
 C           6.0   0.9621000000   0.4587000000  -2.1260000000
 C           6.0   2.3201000000   0.6785000000  -1.9551000000
 C           6.0   2.7719000000   1.7219000000  -1.1811000000
 C           6.0   3.6709000000   1.3330000000   0.7199000000
 C           6.0   4.0630000000   0.0883000000   1.1543000000
 C           6.0   3.0639000000  -0.6067000000   1.7455000000
 C           6.0   2.3642000000   1.7858000000   0.9562000000
 C           6.0  -1.8218000000   2.0987000000   0.2841000000
 C           6.0  -0.4623000000   2.1034000000   0.5369000000
 C           6.0   0.0340000000   1.4027000000   1.7046000000
 C           6.0   1.4213000000   1.1659000000   1.8027000000
 C           6.0   1.8348000000  -0.1343000000   2.1496000000
 C           6.0  -1.8333000000  -0.1270000000  -2.1483000000
 C           6.0  -1.4151000000   1.1692000000  -1.7964000000
 C           6.0  -0.0311000000   1.4062000000  -1.6832000000
 C           6.0   0.4628000000   2.1289000000  -0.5320000000
 C           6.0   1.8187000000   2.1356000000  -0.2945000000
 C           6.0  -2.3808000000   1.7817000000  -0.9633000000
 C           6.0   1.4777000000  -2.0041000000   1.0943000000
 C           6.0   2.8064000000  -1.7350000000   1.0429000000
 C           6.0  -0.6923000000  -2.2634000000   0.0658000000
 C           6.0  -2.7489000000  -1.4299000000   1.1638000000
 C           6.0  -1.3694000000  -1.7277000000   1.2293000000
 C           6.0  -3.5733000000  -1.6454000000   0.0610000000
 C           6.0  -0.4949000000  -0.8824000000   1.9775000000
 C           6.0   0.8559000000  -1.0979000000   1.9507000000
 C           6.0  -3.2876000000  -0.2840000000   1.7230000000
 C           6.0  -2.7749000000   1.7035000000   1.1874000000
 C           6.0  -2.3170000000   0.6739000000   1.9657000000
 C           6.0  -0.9654000000   0.4563000000   2.1449000000
 C           6.0  -4.5108000000  -0.6397000000  -0.0441000000
 C           6.0  -4.3874000000   0.1888000000   1.0274000000
 C           6.0  -3.9626000000   1.4011000000   0.5961000000
 C           6.0  -3.0698000000  -0.5972000000  -1.7645000000
 C           6.0  -4.0800000000   0.0949000000  -1.1647000000
 C           6.0  -3.6975000000   1.3400000000  -0.7406000000

          ********************
          1 ELECTRON INTEGRALS
          ********************

          **************************
          1 AND 2 ELECTRON INTEGRALS
          **************************

 MOPAC ONE- AND TWO-ELECTRON INTEGRALS REQUIRE    149856 WORDS.
 ...... END OF ONE- AND TWO-ELECTRON INTEGRALS......
 CPU     0: STEP CPU TIME=     0.00 TOTAL CPU TIME=          0.0 (      0.0 MIN)
 TOTAL WALL CLOCK TIME=          0.0 SECONDS, CPU UTILIZATION IS     0.00%
 ...... END OF ONE-ELECTRON INTEGRALS ......
 CPU     0: STEP CPU TIME=     0.00 TOTAL CPU TIME=          0.0 (      0.0 MIN)
 TOTAL WALL CLOCK TIME=          0.0 SECONDS, CPU UTILIZATION IS     0.00%

          -------------
          GUESS OPTIONS
          -------------
          GUESS =HUCKEL            NORB  =       0          NORDER=       0
          MIX   =       F          PRTMO =       F          PUNMO =       F
          TOLZ  = 1.0E-08          TOLE  = 1.0E-05
          SYMDEN=       F          PURIFY=       F

 INITIAL GUESS ORBITALS GENERATED BY HUCKEL   ROUTINE.

 SYMMETRIES FOR INITIAL GUESS ORBITALS FOLLOW.   BOTH SET(S).
    96 ORBITALS ARE OCCUPIED (    0 CORE ORBITALS).
     1=A        2=A        3=A        4=A        5=A        6=A        7=A   
     8=A        9=A       10=A       11=A       12=A       13=A       14=A   
    15=A       16=A       17=A       18=A       19=A       20=A       21=A   
    22=A       23=A       24=A       25=A       26=A       27=A       28=A   
    29=A       30=A       31=A       32=A       33=A       34=A       35=A   
    36=A       37=A       38=A       39=A       40=A       41=A       42=A   
    43=A       44=A       45=A       46=A       47=A       48=A       49=A   
    50=A       51=A       52=A       53=A       54=A       55=A       56=A   
    57=A       58=A       59=A       60=A       61=A       62=A       63=A   
    64=A       65=A       66=A       67=A       68=A       69=A       70=A   
    71=A       72=A       73=A       74=A       75=A       76=A       77=A   
    78=A       79=A       80=A       81=A       82=A       83=A       84=A   
    85=A       86=A       87=A       88=A       89=A       90=A       91=A   
    92=A       93=A       94=A       95=A       96=A       97=A       98=A   
    99=A      100=A      101=A      102=A      103=A      104=A      105=A   
   106=A   
 ...... END OF INITIAL ORBITAL SELECTION ......
 CPU     0: STEP CPU TIME=     0.02 TOTAL CPU TIME=          0.0 (      0.0 MIN)
 TOTAL WALL CLOCK TIME=          0.0 SECONDS, CPU UTILIZATION IS    37.20%

          --------------------------
               R-PM3 SCF CALCULATION
          --------------------------

     NUCLEAR ENERGY =      2428.1496899586
     MAXIT =  200     NPUNCH=    2
     EXTRAP=T  DAMP=F  SHIFT=F  RSTRCT=F  DIIS=F  DEM=F  SOSCF=T
     DENSITY MATRIX CONV=  2.00E-05
     SOSCF WILL OPTIMIZE    9216 ORBITAL ROTATIONS, SOGTOL=   0.250
     MEMORY REQUIRED FOR RHF ITERS=    411168 WORDS.

                                                                                   NONZERO     BLOCKS
 ITER EX DEM     TOTAL ENERGY        E CHANGE  DENSITY CHANGE     ORB. GRAD      INTEGRALS    SKIPPED
   1  0  0     -205.5250289308  -205.5250289308   0.177027358   0.000000000              0          0
          ---------------START SECOND ORDER SCF---------------
   2  1  0     -206.9571662181    -1.4321372873   0.062687271   0.018634868              0          0
   3  2  0     -207.0792371943    -0.1220709762   0.031320030   0.011758832              0          0
   4  3  0     -207.0961322078    -0.0168950135   0.014630303   0.004570676              0          0
   5  4  0     -207.0996199873    -0.0034877796   0.007415651   0.001492799              0          0
   6  5  0     -207.1001112034    -0.0004912160   0.009223347   0.001288051              0          0
   7  6  0     -207.1004279788    -0.0003167754   0.002832357   0.000706461              0          0
   8  7  0     -207.1004928963    -0.0000649175   0.003165991   0.000519761              0          0
   9  8  0     -207.1005419851    -0.0000490888   0.005208359   0.000398147              0          0
  10  9  0     -207.1005829424    -0.0000409573   0.003314429   0.000252458              0          0
  11 10  0     -207.1006034197    -0.0000204773   0.004508599   0.000194125              0          0
  12 11  0     -207.1006225950    -0.0000191752   0.003525139   0.000188452              0          0
  13 12  0     -207.1006339444    -0.0000113494   0.003102859   0.000152800              0          0
  14 13  0     -207.1006417207    -0.0000077763   0.002138941   0.000097710              0          0
  15 14  0     -207.1006461269    -0.0000044062   0.001500303   0.000073402              0          0
  16 15  0     -207.1006485755    -0.0000024486   0.000921006   0.000068194              0          0
  17 16  0     -207.1006497771    -0.0000012016   0.000635788   0.000048748              0          0
  18 17  0     -207.1006503951    -0.0000006180   0.000432865   0.000029647              0          0
  19 18  0     -207.1006507227    -0.0000003276   0.000320677   0.000017068              0          0
  20 19  0     -207.1006508921    -0.0000001694   0.000223532   0.000015174              0          0
  21 20  0     -207.1006509742    -0.0000000821   0.000177339   0.000012898              0          0
  22 21  0     -207.1006510230    -0.0000000488   0.000196150   0.000011112              0          0
  23 22  0     -207.1006510666    -0.0000000436   0.000325741   0.000009906              0          0
  24 23  0     -207.1006511192    -0.0000000526   0.000506853   0.000010564              0          0
  25 24  0     -207.1006511872    -0.0000000679   0.000631453   0.000013395              0          0
  26 25  0     -207.1006512614    -0.0000000742   0.000507091   0.000012801              0          0
  27 26  0     -207.1006513170    -0.0000000557   0.000191585   0.000008364              0          0
  28 27  0     -207.1006513424    -0.0000000254   0.000042067   0.000003818              0          0
  29 28  0     -207.1006513504    -0.0000000079   0.000023297   0.000002401              0          0
  30 29  0     -207.1006513529    -0.0000000025   0.000014751   0.000001927              0          0

          -----------------
          DENSITY CONVERGED
          -----------------
     TIME TO FORM FOCK OPERATORS=       0.0 SECONDS (       0.0 SEC/ITER)
     FOCK TIME ON FIRST ITERATION=       0.0, LAST ITERATION=       0.0
     TIME TO SOLVE SCF EQUATIONS=       0.1 SECONDS (       0.0 SEC/ITER)

 FINAL R-PM3 ENERGY IS     -207.1006513529 AFTER  30 ITERATIONS

 HEAT OF FORMATION IS      1364.79066 KCAL/MOL
 

          ------------
          EIGENVECTORS
          ------------

                      1          2          3          4          5
                   -1.9532    -1.9024    -1.6652    -1.6525    -1.6233
                     A          A          A          A          A   
    1  C  1  S    0.166705  -0.194138  -0.047382  -0.022058  -0.192298
    2  C  1  X   -0.055125   0.062376   0.001465   0.012200   0.057296
    3  C  1  Y    0.021286  -0.026160  -0.039896   0.010680  -0.011336
    4  C  1  Z   -0.006118   0.008059   0.025017  -0.031402   0.008764
    5  C  2  S    0.162403  -0.177105   0.064995  -0.048587  -0.177323
    6  C  2  X   -0.019395   0.015076  -0.042888   0.011444   0.002483
    7  C  2  Y    0.046796  -0.054349  -0.013847  -0.004449  -0.052173
    8  C  2  Z    0.004288  -0.003801   0.029240  -0.041609  -0.003462
    9  C  3  S    0.115560  -0.068183   0.159718   0.097227   0.016576
   10  C  3  X    0.004622  -0.024441  -0.031487  -0.023707  -0.034297
   11  C  3  Y    0.019145  -0.013828  -0.001942   0.031617   0.011188
   12  C  3  Z    0.014289  -0.010112   0.041715  -0.025674  -0.010059
   13  C  4  S    0.152567  -0.152721   0.046929   0.058376  -0.106090
   14  C  4  X    0.007243  -0.019384  -0.036863  -0.014110  -0.042693
   15  C  4  Y    0.032413  -0.036249  -0.031563   0.028874  -0.017794
   16  C  4  Z    0.024496  -0.026335   0.028892  -0.028317  -0.032762
   17  C  5  S    0.108574  -0.034595   0.257559   0.007319   0.030256
   18  C  5  X    0.003916  -0.024685  -0.009402  -0.024675  -0.017651
   19  C  5  Y    0.022693  -0.009266   0.043388   0.000761   0.008895
   20  C  5  Z    0.003727  -0.003558   0.021075  -0.048173   0.000433
   21  C  6  S    0.149252   0.159588   0.139484   0.201255  -0.102071
   22  C  6  X    0.004001  -0.007560   0.047053   0.037403   0.034811
   23  C  6  Y    0.035917   0.041768   0.009042   0.043321  -0.024514
   24  C  6  Z    0.016934   0.020993   0.005031  -0.017636  -0.029094
   25  C  7  S    0.123341   0.090394   0.222306   0.212238   0.005773
   26  C  7  X   -0.006613  -0.024110   0.018229  -0.009423   0.032076
   27  C  7  Y    0.028410   0.023431   0.035452   0.058366   0.006334
   28  C  7  Z    0.009187   0.006317   0.022187  -0.021099  -0.008894
   29  C  8  S    0.170652  -0.199136  -0.139208   0.066159  -0.151618
   30  C  8  X   -0.052764   0.059516   0.043473  -0.031025   0.030887
   31  C  8  Y   -0.001248   0.001490  -0.028318   0.011189   0.026027
   32  C  8  Z    0.031592  -0.037944  -0.014942  -0.012987  -0.038401
   33  C  9  S    0.168320  -0.182905  -0.102647   0.122381  -0.095913
   34  C  9  X   -0.007011  -0.000077  -0.010951  -0.026206  -0.032135
   35  C  9  Y    0.014833  -0.017317  -0.049576   0.024902   0.016747
   36  C  9  Z    0.047623  -0.054531  -0.022364   0.010974  -0.045595
   37  C 10  S    0.118112   0.060437   0.179688   0.265119   0.088039
   38  C 10  X   -0.009641  -0.029652  -0.007755  -0.022510   0.022756
   39  C 10  Y    0.008672   0.004051  -0.016106   0.023169   0.027477
   40  C 10  Z    0.020853   0.012147   0.041317   0.031115   0.003662
   41  C 11  S    0.108682  -0.020297   0.122136   0.209030   0.111973
   42  C 11  X    0.000099  -0.026344  -0.025567  -0.025051  -0.016441
   43  C 11  Y    0.007748  -0.003806  -0.028605   0.022654   0.030793
   44  C 11  Z    0.017726  -0.004900   0.031101   0.017185   0.008267
   45  C 12  S    0.173367  -0.197560  -0.194482   0.072571  -0.059463
   46  C 12  X   -0.037754   0.039260   0.048703  -0.024893  -0.023173
   47  C 12  Y   -0.041520   0.049534   0.028586  -0.011724   0.050401
   48  C 12  Z    0.011767  -0.013635  -0.002003  -0.023660  -0.005425
   49  C 13  S    0.111752  -0.052557  -0.014867   0.195619   0.164396
   50  C 13  X    0.006808  -0.027263  -0.028380  -0.007897  -0.026858
   51  C 13  Y   -0.003965   0.000196  -0.034031  -0.015534   0.019653
   52  C 13  Z    0.022183  -0.011896  -0.007277   0.026910   0.033418
   53  C 14  S    0.149434  -0.141107  -0.126807   0.172966   0.062228
   54  C 14  X    0.013226  -0.027714  -0.031895  -0.009284  -0.053871
   55  C 14  Y   -0.007186   0.006814  -0.023365  -0.009677   0.026059
   56  C 14  Z    0.037528  -0.038855  -0.038968   0.025622   0.007573
   57  C 15  S    0.159819  -0.163606  -0.198550   0.123075   0.076235
   58  C 15  X    0.002023  -0.012498  -0.007113  -0.010281  -0.056987
   59  C 15  Y   -0.039745   0.043316   0.038204  -0.035588   0.011995
   60  C 15  Z    0.026425  -0.028202  -0.032886  -0.005781   0.015772
   61  C 16  S    0.163028  -0.180824  -0.128888  -0.017014  -0.033232
   62  C 16  X   -0.020243   0.017140   0.013299   0.007639  -0.038238
   63  C 16  Y   -0.033826   0.039664   0.000553   0.018516   0.044207
   64  C 16  Z   -0.031511   0.037235   0.053716  -0.031781   0.011516
   65  C 17  S    0.163035  -0.184363  -0.024922  -0.081963  -0.131943
   66  C 17  X   -0.034597   0.035472  -0.014060   0.033711   0.007341
   67  C 17  Y   -0.006783   0.007317  -0.036842   0.020381   0.029788
   68  C 17  Z   -0.039459   0.047468   0.034012  -0.011161   0.044540
   69  C 18  S    0.156753  -0.158221   0.125783  -0.179698  -0.075077
   70  C 18  X   -0.010672   0.001011  -0.052309   0.041246  -0.034957
   71  C 18  Y    0.003510  -0.004914  -0.035266   0.005894   0.015901
   72  C 18  Z   -0.041593   0.046195  -0.012270   0.022432   0.042536
   73  C 19  S    0.136225  -0.125042  -0.096154  -0.043959   0.130794
   74  C 19  X    0.004458  -0.017315  -0.015577   0.014232  -0.055087
   75  C 19  Y   -0.027083   0.026693  -0.002691   0.023920  -0.002500
   76  C 19  Z   -0.024087   0.025654   0.049123  -0.032320  -0.018495
   77  C 20  S    0.130106   0.117152  -0.128603  -0.093578   0.195637
   78  C 20  X   -0.012849  -0.031021   0.023763   0.016364   0.047278
   79  C 20  Y   -0.028935  -0.029051   0.021752   0.020519  -0.023965
   80  C 20  Z   -0.000692   0.000233  -0.000130  -0.039272  -0.004741
   81  C 21  S    0.105416   0.031570  -0.076499  -0.070992   0.282498
   82  C 21  X   -0.003479  -0.027600   0.009467   0.014033   0.013842
   83  C 21  Y   -0.018606  -0.005999   0.003048   0.019043  -0.040517
   84  C 21  Z   -0.004793  -0.000089   0.013449  -0.035678  -0.019610
   85  C 22  S    0.101659   0.004263   0.003471  -0.153396   0.242767
   86  C 22  X   -0.000711  -0.025871   0.011043   0.007229  -0.001031
   87  C 22  Y   -0.012800  -0.000089  -0.027984   0.033419  -0.011915
   88  C 22  Z   -0.015122  -0.000794   0.018468   0.001261  -0.045779
   89  C 23  S    0.113962  -0.070714   0.029210  -0.148552   0.178560
   90  C 23  X    0.005378  -0.022255  -0.008732   0.010525  -0.036890
   91  C 23  Y   -0.015205   0.010913  -0.041171   0.039306   0.003055
   92  C 23  Z   -0.020505   0.015717   0.018709   0.002387  -0.033239
   93  C 24  S    0.129832  -0.098229   0.157902  -0.211897   0.074942
   94  C 24  X    0.003908  -0.018880  -0.017260   0.011885  -0.043085
   95  C 24  Y   -0.007069   0.006240  -0.051656   0.020440   0.026184
   96  C 24  Z   -0.031840   0.027168  -0.029573   0.038273  -0.007941
   97  C 25  S    0.124190   0.104305   0.091637   0.243430   0.071974
   98  C 25  X   -0.003262  -0.018938   0.013049   0.016254   0.042417
   99  C 25  Y   -0.006441  -0.006405  -0.042858  -0.033262   0.025447
  100  C 25  Z    0.030546   0.028659   0.017853   0.044810   0.007944
  101  C 26  S    0.110416   0.076384  -0.012257   0.149223   0.174538
  102  C 26  X   -0.004386  -0.022436   0.005453   0.013097   0.037525
  103  C 26  Y   -0.014600  -0.011693  -0.028503  -0.048797   0.003064
  104  C 26  Z    0.019717   0.016551  -0.018375  -0.003050   0.032566
  105  C 27  S    0.102260   0.001206  -0.039293   0.148514   0.243674
  106  C 27  X    0.001931  -0.025965  -0.012900   0.004415   0.002605
  107  C 27  Y   -0.012468  -0.000752  -0.018023  -0.039808  -0.010557
  108  C 27  Z    0.015022  -0.000040  -0.018223  -0.004573   0.045818
  109  C 28  S    0.106344  -0.026084  -0.093844   0.047446   0.284346
  110  C 28  X    0.004984  -0.027368  -0.013661   0.010753  -0.010756
  111  C 28  Y   -0.019510   0.004943   0.009036  -0.017556  -0.043096
  112  C 28  Z    0.004682   0.000133  -0.003180  -0.037219   0.019378
  113  C 29  S    0.134042  -0.109275  -0.150292   0.054494   0.203576
  114  C 29  X    0.013746  -0.029851  -0.026652   0.008366  -0.045641
  115  C 29  Y   -0.031126   0.028283   0.028292  -0.014232  -0.027285
  116  C 29  Z    0.000884   0.000059   0.009990  -0.036799   0.005256
  117  C 30  S    0.129973   0.131663  -0.102831   0.014440   0.120817
  118  C 30  X   -0.003394  -0.017019   0.011062   0.018551   0.055640
  119  C 30  Y   -0.025874  -0.028065   0.004096  -0.022921  -0.001836
  120  C 30  Z    0.022948   0.026810  -0.038011  -0.043930   0.016631
  121  C 31  S    0.127262  -0.083940   0.272109  -0.142363   0.004177
  122  C 31  X    0.007828  -0.024014  -0.014177  -0.015101  -0.033138
  123  C 31  Y    0.029597  -0.022033   0.050558  -0.046933   0.006490
  124  C 31  Z   -0.009377   0.005877  -0.015218  -0.026552   0.010016
  125  C 32  S    0.154512  -0.150379   0.189688  -0.153639  -0.105122
  126  C 32  X   -0.004779  -0.006525  -0.055602   0.023105  -0.033280
  127  C 32  Y    0.039093  -0.041311   0.023428  -0.041148  -0.026276
  128  C 32  Z   -0.017696   0.020088   0.000114  -0.018251   0.030071
  129  C 33  S    0.107522   0.040736   0.250615   0.067719   0.032395
  130  C 33  X   -0.003104  -0.024915   0.015048  -0.020942   0.016423
  131  C 33  Y    0.022311   0.010575   0.041827   0.011681   0.009339
  132  C 33  Z   -0.003374  -0.003726  -0.006670  -0.052071   0.000383
  133  C 34  S    0.146245   0.160117   0.062237  -0.037702  -0.099958
  134  C 34  X   -0.006345  -0.019717   0.039907  -0.002731   0.043134
  135  C 34  Y    0.030608   0.037488  -0.022645  -0.035943  -0.016986
  136  C 34  Z   -0.023261  -0.027507  -0.019819  -0.035923   0.032174
  137  C 35  S    0.113008   0.074130   0.181489  -0.045138   0.021955
  138  C 35  X   -0.003161  -0.024172   0.037211  -0.014111   0.033447
  139  C 35  Y    0.018542   0.014745   0.006655  -0.030603   0.012035
  140  C 35  Z   -0.014225  -0.011301  -0.033586  -0.036821   0.010024
  141  C 36  S    0.154194   0.184488   0.047824   0.066365  -0.172513
  142  C 36  X    0.018978   0.016399   0.038170   0.023891  -0.001914
  143  C 36  Y    0.044610   0.056788  -0.014523   0.000872  -0.051811
  144  C 36  Z   -0.003918  -0.003889  -0.016139  -0.046243   0.003684
  145  C 37  S    0.108061   0.026192   0.175011  -0.164612   0.115849
  146  C 37  X    0.001167  -0.026143   0.031649  -0.017595   0.015997
  147  C 37  Y    0.007485   0.004183  -0.021600  -0.029939   0.030654
  148  C 37  Z   -0.017749  -0.006048  -0.034844   0.007482  -0.008836
  149  C 38  S    0.121042  -0.053840   0.246773  -0.204817   0.090253
  150  C 38  X    0.011076  -0.029281   0.014530  -0.020923  -0.023161
  151  C 38  Y    0.009099  -0.003707  -0.008387  -0.027718   0.028254
  152  C 38  Z   -0.021659   0.011100  -0.048718   0.018740  -0.003824
  153  C 39  S    0.162039   0.193022  -0.067136  -0.142889  -0.094459
  154  C 39  X    0.007479   0.000811   0.017849  -0.021997   0.032613
  155  C 39  Y    0.014023   0.018003  -0.042001  -0.038921   0.015966
  156  C 39  Z   -0.044265  -0.055702   0.018155   0.013873   0.045069
  157  C 40  S    0.152633   0.171607  -0.156540  -0.174113   0.068589
  158  C 40  X   -0.001597  -0.012613   0.010211  -0.007760   0.056516
  159  C 40  Y   -0.037641  -0.044917   0.026737   0.044473   0.011980
  160  C 40  Z   -0.025007  -0.029407   0.032713   0.003859  -0.012903
  161  C 41  S    0.142409   0.147284  -0.074070  -0.199356   0.062409
  162  C 41  X   -0.011372  -0.027426   0.033033  -0.000600   0.053607
  163  C 41  Y   -0.006672  -0.006814  -0.024929   0.001628   0.023696
  164  C 41  Z   -0.036337  -0.041276   0.030678   0.036303  -0.006608
  165  C 42  S    0.109223   0.058557   0.038986  -0.190324   0.164997
  166  C 42  X   -0.005522  -0.027231   0.029466  -0.000075   0.027112
  167  C 42  Y   -0.004146  -0.000507  -0.036755   0.004988   0.017966
  168  C 42  Z   -0.021885  -0.013362  -0.000300   0.028046  -0.033269
  169  C 43  S    0.156878   0.200396  -0.051946   0.008224  -0.189272
  170  C 43  X    0.051951   0.064462  -0.004609   0.011599  -0.056240
  171  C 43  Y    0.020566   0.027712  -0.035472  -0.021645  -0.013100
  172  C 43  Z    0.005738   0.008228  -0.015147  -0.035557  -0.008290
  173  C 44  S    0.161823   0.207150  -0.118504  -0.100939  -0.150305
  174  C 44  X    0.050217   0.062150  -0.034360  -0.041143  -0.030580
  175  C 44  Y   -0.001592  -0.002079  -0.024003  -0.019276   0.025298
  176  C 44  Z   -0.029259  -0.038582   0.017758  -0.008279   0.037707
  177  C 45  S    0.162471   0.203182  -0.166578  -0.123308  -0.062835
  178  C 45  X    0.035391   0.040398  -0.039250  -0.036806   0.020968
  179  C 45  Y   -0.040239  -0.052566   0.026663   0.020567   0.048959
  180  C 45  Z   -0.010721  -0.013671   0.007782  -0.021344   0.006290
  181  C 46  S    0.146958   0.163184   0.068476   0.201764  -0.073451
  182  C 46  X    0.010937   0.002318   0.038492   0.054248   0.033541
  183  C 46  Y    0.003366   0.005064  -0.030944  -0.015227   0.014399
  184  C 46  Z    0.039745   0.048294   0.005869   0.025992  -0.041382
  185  C 47  S    0.152625   0.189613  -0.047822   0.067451  -0.131336
  186  C 47  X    0.032718   0.036956   0.003864   0.035085  -0.008150
  187  C 47  Y   -0.005897  -0.006955  -0.029117  -0.029137   0.027381
  188  C 47  Z    0.037104   0.048928  -0.029617  -0.019819  -0.044062
  189  C 48  S    0.152404   0.185846  -0.126684  -0.020844  -0.040107
  190  C 48  X    0.019670   0.018657  -0.014664   0.003530   0.034993
  191  C 48  Y   -0.031982  -0.041119   0.006460  -0.016687   0.042871
  192  C 48  Z    0.029731   0.038521  -0.042488  -0.044193  -0.012796

                      6          7          8          9         10
                   -1.5269    -1.5058    -1.4058    -1.3424    -1.3225
                     A          A          A          A          A   
    1  C  1  S    0.087318   0.041553   0.225353  -0.109421  -0.052052
    2  C  1  X   -0.039927  -0.012895  -0.044249   0.048679   0.017204
    3  C  1  Y   -0.043008   0.008230   0.046763   0.061588  -0.005070
    4  C  1  Z   -0.008332   0.060046  -0.016480   0.010397  -0.091576
    5  C  2  S    0.205855   0.003134   0.070825  -0.210944  -0.023947
    6  C  2  X   -0.042123   0.013764   0.058317   0.010591  -0.007705
    7  C  2  Y    0.027509   0.007253   0.057314  -0.042940  -0.005750
    8  C  2  Z   -0.002516   0.069243  -0.009116   0.006775  -0.079523
    9  C  3  S    0.170591  -0.185366  -0.147320   0.047821  -0.052666
   10  C  3  X    0.025041  -0.001440  -0.008112  -0.076119   0.060016
   11  C  3  Y    0.022723  -0.032914  -0.026061  -0.022081  -0.010311
   12  C  3  Z    0.015402  -0.000825  -0.013660   0.028065   0.017086
   13  C  4  S    0.211166  -0.172710  -0.044853  -0.160986   0.105928
   14  C  4  X   -0.005083   0.023433   0.077868  -0.049068   0.035758
   15  C  4  Y    0.010858  -0.041550   0.011462  -0.026461   0.049347
[...]
   87  C 22  Y    0.043030   0.206835  -0.106926   0.183989  -0.003004
   88  C 22  Z    0.077835   0.193116  -0.079538   0.173150   0.057892
   89  C 23  S    0.033025   0.063336  -0.014949  -0.021322   0.003116
   90  C 23  X    0.006879   0.036217  -0.021879  -0.000947  -0.023096
   91  C 23  Y   -0.042215   0.067867  -0.072644  -0.151736  -0.071379
   92  C 23  Z    0.021545   0.106603  -0.060353  -0.248942  -0.110061
   93  C 24  S   -0.076569  -0.053844  -0.023122   0.008931   0.000824
   94  C 24  X    0.007520   0.018889  -0.019101  -0.010885   0.022146
   95  C 24  Y    0.012100  -0.045287   0.015164   0.030474   0.016223
   96  C 24  Z   -0.146903  -0.204948  -0.081458   0.042971  -0.007534
   97  C 25  S   -0.051153   0.032993   0.064137   0.005553  -0.011406
   98  C 25  X   -0.013073   0.024456  -0.025478   0.008345  -0.001989
   99  C 25  Y    0.002503   0.018953  -0.001321  -0.003728  -0.025539
  100  C 25  Z    0.123346  -0.095464  -0.226817  -0.014586   0.046931
  101  C 26  S    0.025302  -0.044545  -0.009406  -0.008322   0.017870
  102  C 26  X   -0.006075   0.022184  -0.012287  -0.018404  -0.007891
  103  C 26  Y    0.004116  -0.032325   0.043774   0.021509   0.140984
  104  C 26  Z   -0.061420   0.038281   0.036444  -0.032423  -0.224041
  105  C 27  S    0.024108  -0.068077   0.009439   0.014363   0.007224
  106  C 27  X    0.025766  -0.042114  -0.013760  -0.003779   0.020191
  107  C 27  Y    0.062498  -0.135818   0.049475   0.037454  -0.107980
  108  C 27  Z   -0.095401   0.114015  -0.009798   0.022338   0.139227
  109  C 28  S   -0.007827   0.070931  -0.015557  -0.047732  -0.002367
  110  C 28  X    0.012036  -0.084974   0.041738   0.015072   0.017096
  111  C 28  Y   -0.030295   0.122364  -0.084697  -0.318852  -0.086974
  112  C 28  Z    0.040364  -0.036495   0.013202   0.095729   0.024810
  113  C 29  S   -0.017131   0.078582  -0.032161   0.072169  -0.018945
  114  C 29  X   -0.015369   0.037921  -0.010843   0.003441   0.005076
  115  C 29  Y   -0.025764   0.131448  -0.067137   0.344013   0.031308
  116  C 29  Z    0.016008   0.002338  -0.024993   0.001631  -0.001695
  117  C 30  S    0.004386   0.051818  -0.060557  -0.005381   0.023735
  118  C 30  X   -0.021486   0.017531   0.061071  -0.008238  -0.007523
  119  C 30  Y   -0.015074   0.129766  -0.246219  -0.054079  -0.023390
  120  C 30  Z    0.028272  -0.058987   0.130161   0.020035   0.055400
  121  C 31  S   -0.088582  -0.028375  -0.020930   0.026947  -0.024940
  122  C 31  X    0.073999  -0.010547   0.004834   0.029441  -0.004622
  123  C 31  Y    0.274130   0.042953   0.165444  -0.070210   0.046387
  124  C 31  Z   -0.111358  -0.048369  -0.090256   0.030861  -0.039871
  125  C 32  S   -0.051918   0.047885   0.007650  -0.058553   0.041749
  126  C 32  X   -0.055867   0.058928   0.013920  -0.062140   0.037806
  127  C 32  Y    0.018670  -0.135306  -0.089894   0.122764  -0.088990
  128  C 32  Z   -0.004732   0.059396   0.028240  -0.091708   0.055315
  129  C 33  S    0.070298   0.002464  -0.014423   0.002776   0.023673
  130  C 33  X   -0.051618  -0.001008   0.008952  -0.000033  -0.009027
  131  C 33  Y   -0.137445  -0.046507   0.101426  -0.145137  -0.172536
  132  C 33  Z    0.020130   0.042510   0.012722   0.034429   0.016151
  133  C 34  S   -0.073966  -0.033921  -0.001910   0.004958  -0.046514
  134  C 34  X    0.050236   0.033119  -0.014948  -0.009323   0.055371
  135  C 34  Y    0.041653   0.040993  -0.058231  -0.107533   0.144294
  136  C 34  Z   -0.040407  -0.092150   0.014286   0.085248  -0.122489
  137  C 35  S   -0.050625  -0.032101  -0.005759  -0.007257   0.004418
  138  C 35  X   -0.058214  -0.026935   0.000919   0.020202  -0.049940
  139  C 35  Y    0.237160   0.029492   0.106752   0.119644  -0.062430
  140  C 35  Z   -0.172064  -0.060864  -0.107334  -0.066882   0.054909
  141  C 36  S    0.076970  -0.006918  -0.026084   0.019078   0.011943
  142  C 36  X   -0.097139   0.069316   0.020923  -0.004936  -0.027010
  143  C 36  Y   -0.150090   0.048867  -0.002780  -0.025535  -0.054624
  144  C 36  Z    0.046654  -0.004943  -0.004340  -0.017407   0.029500
  145  C 37  S    0.070685   0.061217   0.021863  -0.023553   0.001999
  146  C 37  X   -0.080018  -0.056884  -0.046363   0.027577  -0.006966
  147  C 37  Y   -0.089499  -0.010323  -0.095076   0.066387   0.067093
  148  C 37  Z    0.199960   0.116968   0.194216  -0.167823  -0.090056
  149  C 38  S    0.057918   0.029957  -0.001106   0.013923   0.031110
  150  C 38  X    0.027052   0.018802   0.009723  -0.017974   0.000315
  151  C 38  Y   -0.053253   0.017576   0.010376  -0.072890  -0.091209
  152  C 38  Z    0.002597   0.025377  -0.063154   0.126185   0.176441
  153  C 39  S    0.082463   0.087734   0.044261   0.020076   0.045878
  154  C 39  X   -0.058763  -0.049174  -0.054914   0.003197  -0.072339
  155  C 39  Y   -0.041870  -0.037651  -0.006458   0.029617  -0.035910
  156  C 39  Z    0.166165   0.169631   0.063466  -0.001288   0.043323
  157  C 40  S    0.036843   0.122539  -0.023625   0.012491  -0.046539
  158  C 40  X   -0.005593  -0.043879   0.004491   0.001724   0.024351
  159  C 40  Y    0.056990   0.203979  -0.024248   0.030755   0.019322
  160  C 40  Z    0.065958   0.143689   0.004722   0.056272  -0.019692
  161  C 41  S   -0.062027  -0.091748  -0.016271  -0.049679   0.054940
  162  C 41  X    0.046150   0.058155   0.015376   0.022498  -0.025193
  163  C 41  Y   -0.016975  -0.045089   0.006200  -0.052428   0.101891
  164  C 41  Z   -0.112263  -0.050722  -0.057672  -0.174227   0.277628
  165  C 42  S   -0.040441  -0.067211   0.009599   0.037236  -0.045984
  166  C 42  X   -0.049013  -0.097028  -0.001456   0.002304  -0.003183
  167  C 42  Y    0.032521  -0.031985   0.037511   0.019599  -0.040620
  168  C 42  Z   -0.062598  -0.187884   0.005105   0.133044  -0.300664
  169  C 43  S   -0.052331   0.060296   0.050210  -0.006585   0.012214
  170  C 43  X    0.133518  -0.145454  -0.073445   0.017574  -0.016209
  171  C 43  Y    0.077738  -0.057262  -0.005308   0.011383   0.022022
  172  C 43  Z    0.031278  -0.014620   0.017174   0.021480   0.027027
  173  C 44  S   -0.028661  -0.030220  -0.066528  -0.020381  -0.082005
  174  C 44  X    0.055019   0.033831   0.142918   0.054473   0.127375
  175  C 44  Y   -0.016134   0.044286  -0.000643  -0.021478  -0.017199
  176  C 44  Z   -0.071224  -0.026089  -0.103434  -0.036420  -0.092560
  177  C 45  S    0.017924  -0.045342   0.027749   0.022384   0.086937
  178  C 45  X   -0.050663   0.083208  -0.054479  -0.060103  -0.095170
  179  C 45  Y    0.027220  -0.135442   0.017325   0.043642   0.077926
  180  C 45  Z    0.011319  -0.037935   0.039478   0.004601   0.038252
  181  C 46  S    0.014426   0.022434  -0.066058   0.003850  -0.020156
  182  C 46  X   -0.010409  -0.016928   0.081564   0.009473   0.039347
  183  C 46  Y   -0.016566  -0.002783   0.051163  -0.024283   0.025550
  184  C 46  Z   -0.053491   0.009999   0.236272   0.010437   0.036813
  185  C 47  S    0.033104  -0.050326  -0.012147   0.015137   0.037244
  186  C 47  X   -0.041988   0.056647  -0.022309  -0.053731  -0.026015
  187  C 47  Y   -0.006804   0.010382  -0.025293   0.009480   0.022452
  188  C 47  Z    0.006033   0.006868  -0.080056  -0.038780  -0.035548
  189  C 48  S   -0.029747   0.027371   0.051535  -0.015458  -0.063161
  190  C 48  X    0.026042  -0.018642  -0.094131   0.035940   0.030773
  191  C 48  Y   -0.004958  -0.019492   0.153605  -0.023127  -0.013173
  192  C 48  Z    0.006585   0.022630  -0.116779   0.010678  -0.021188

                    106
                   -0.0432
                     A   
    1  C  1  S   -0.051570
    2  C  1  X   -0.092465
    3  C  1  Y    0.005711
    4  C  1  Z   -0.038971
    5  C  2  S    0.008437
    6  C  2  X   -0.022794
    7  C  2  Y    0.096448
    8  C  2  Z    0.031922
    9  C  3  S   -0.008806
   10  C  3  X   -0.015749
   11  C  3  Y    0.076779
   12  C  3  Z    0.071626
   13  C  4  S    0.009124
   14  C  4  X    0.033618
   15  C  4  Y   -0.152549
   16  C  4  Z   -0.101534
   17  C  5  S   -0.009802
   18  C  5  X   -0.011023
   19  C  5  Y    0.104207
   20  C  5  Z    0.006107
   21  C  6  S   -0.032467
   22  C  6  X    0.023261
   23  C  6  Y   -0.026437
   24  C  6  Z   -0.000760
   25  C  7  S   -0.003618
   26  C  7  X   -0.020288
   27  C  7  Y    0.096452
   28  C  7  Z    0.032558
   29  C  8  S    0.000242
   30  C  8  X    0.019385
   31  C  8  Y   -0.035864
   32  C  8  Z   -0.004324
   33  C  9  S    0.026032
   34  C  9  X   -0.026844
   35  C  9  Y    0.044624
   36  C  9  Z   -0.013537
   37  C 10  S    0.005203
   38  C 10  X    0.010486
   39  C 10  Y   -0.018187
   40  C 10  Z    0.028752
   41  C 11  S   -0.005377
   42  C 11  X    0.004942
   43  C 11  Y    0.004505
   44  C 11  Z    0.008739
   45  C 12  S    0.033829
   46  C 12  X    0.088215
   47  C 12  Y    0.059761
   48  C 12  Z    0.031733
   49  C 13  S    0.016048
   50  C 13  X    0.025192
   51  C 13  Y    0.008801
   52  C 13  Z   -0.125059
   53  C 14  S   -0.081369
   54  C 14  X   -0.043062
   55  C 14  Y   -0.105028
   56  C 14  Z    0.242633
   57  C 15  S    0.080461
   58  C 15  X   -0.006503
   59  C 15  Y    0.162907
   60  C 15  Z   -0.161592
   61  C 16  S   -0.106120
   62  C 16  X   -0.149391
   63  C 16  Y   -0.161326
   64  C 16  Z   -0.152308
   65  C 17  S    0.082632
   66  C 17  X    0.155077
   67  C 17  Y    0.064494
   68  C 17  Z    0.089987
   69  C 18  S    0.009728
   70  C 18  X   -0.005915
   71  C 18  Y   -0.032046
   72  C 18  Z    0.097894
   73  C 19  S    0.082008
   74  C 19  X    0.065647
   75  C 19  Y    0.083643
   76  C 19  Z    0.017492
   77  C 20  S    0.031293
   78  C 20  X   -0.014641
   79  C 20  Y    0.032639
   80  C 20  Z    0.008328
   81  C 21  S    0.025942
   82  C 21  X    0.046260
   83  C 21  Y    0.091214
   84  C 21  Z    0.024917
   85  C 22  S   -0.020699
   86  C 22  X    0.007448
   87  C 22  Y   -0.055989
   88  C 22  Z   -0.018467
   89  C 23  S    0.005580
   90  C 23  X   -0.004678
   91  C 23  Y   -0.005857
   92  C 23  Z    0.096387
   93  C 24  S   -0.042188
   94  C 24  X   -0.010595
   95  C 24  Y   -0.028012
   96  C 24  Z   -0.178533
   97  C 25  S    0.017281
   98  C 25  X    0.022540
   99  C 25  Y    0.047080
  100  C 25  Z   -0.143068
  101  C 26  S   -0.024420
  102  C 26  X    0.015489
  103  C 26  Y   -0.105907
  104  C 26  Z    0.207723
  105  C 27  S    0.035453
  106  C 27  X    0.017875
  107  C 27  Y    0.134068
  108  C 27  Z   -0.107676
  109  C 28  S   -0.032461
  110  C 28  X    0.056445
  111  C 28  Y   -0.131059
  112  C 28  Z    0.051037
  113  C 29  S   -0.064743
  114  C 29  X   -0.048357
  115  C 29  Y   -0.048375
  116  C 29  Z    0.016597
  117  C 30  S   -0.048313
  118  C 30  X    0.065888
  119  C 30  Y   -0.027727
  120  C 30  Z   -0.008400
  121  C 31  S    0.010071
  122  C 31  X    0.001776
  123  C 31  Y   -0.099140
  124  C 31  Z    0.037522
  125  C 32  S   -0.012242
  126  C 32  X   -0.004374
  127  C 32  Y    0.021237
  128  C 32  Z   -0.032813
  129  C 33  S    0.012778
  130  C 33  X   -0.011322
  131  C 33  Y   -0.112140
  132  C 33  Z    0.018344
  133  C 34  S   -0.025779
  134  C 34  X    0.043601
  135  C 34  Y    0.126268
  136  C 34  Z   -0.094628
  137  C 35  S   -0.003728
  138  C 35  X   -0.022447
  139  C 35  Y   -0.022756
  140  C 35  Z    0.031193
  141  C 36  S    0.012045
  142  C 36  X   -0.011173
  143  C 36  Y   -0.094720
  144  C 36  Z    0.024689
  145  C 37  S    0.009035
  146  C 37  X   -0.003726
  147  C 37  Y    0.011030
  148  C 37  Z   -0.016807
  149  C 38  S    0.007409
  150  C 38  X    0.006175
  151  C 38  Y   -0.005325
  152  C 38  Z    0.054070
  153  C 39  S    0.016302
  154  C 39  X   -0.035996
  155  C 39  Y   -0.048618
  156  C 39  Z    0.053432
  157  C 40  S   -0.022311
  158  C 40  X   -0.009381
  159  C 40  Y   -0.089536
  160  C 40  Z   -0.083866
  161  C 41  S    0.028716
  162  C 41  X   -0.007158
  163  C 41  Y    0.067505
  164  C 41  Z    0.134846
  165  C 42  S   -0.019550
  166  C 42  X    0.000053
  167  C 42  Y   -0.005608
  168  C 42  Z   -0.104596
  169  C 43  S    0.060362
  170  C 43  X   -0.041566
  171  C 43  Y    0.024895
  172  C 43  Z   -0.054131
  173  C 44  S   -0.011264
  174  C 44  X   -0.002439
  175  C 44  Y    0.033564
  176  C 44  Z    0.003940
  177  C 45  S   -0.043046
  178  C 45  X    0.054703
  179  C 45  Y   -0.046077
  180  C 45  Z    0.044656
  181  C 46  S    0.073737
  182  C 46  X   -0.104919
  183  C 46  Y   -0.019937
  184  C 46  Z   -0.080020
  185  C 47  S   -0.145811
  186  C 47  X    0.233918
  187  C 47  Y   -0.066086
  188  C 47  Z    0.185856
  189  C 48  S    0.131345
  190  C 48  X   -0.164720
  191  C 48  Y    0.130998
  192  C 48  Z   -0.137091

     ----------------------------------------------------------------
     PROPERTY VALUES FOR THE RHF   SELF-CONSISTENT FIELD WAVEFUNCTION
     ----------------------------------------------------------------

                    -------------
                    MOPAC CHARGES
                    -------------
         ATOM NO.   TYPE          CHARGE        ATOM  ELECTRON DENSITY
           1         C             -0.0349          4.0349
           2         C              0.0634          3.9366
           3         C              0.0438          3.9562
           4         C             -0.0556          4.0556
           5         C             -0.0194          4.0194
           6         C             -0.0354          4.0354
           7         C              0.0298          3.9702
           8         C             -0.0560          4.0560
           9         C              0.1436          3.8564
          10         C             -0.0288          4.0288
          11         C              0.0059          3.9941
          12         C             -0.0479          4.0479
          13         C             -0.0010          4.0010
          14         C             -0.0612          4.0612
          15         C              0.0585          3.9415
          16         C              0.0103          3.9897
          17         C             -0.0027          4.0027
          18         C             -0.0160          4.0160
          19         C              0.0360          3.9640
          20         C              0.0000          4.0000
          21         C             -0.0098          4.0098
          22         C              0.0132          3.9868
          23         C              0.0108          3.9892
          24         C              0.0314          3.9686
          25         C              0.0101          3.9899
          26         C             -0.0034          4.0034
          27         C              0.0097          3.9903
          28         C              0.0118          3.9882
          29         C             -0.0567          4.0567
          30         C              0.0182          3.9818
          31         C              0.0132          3.9868
          32         C             -0.0465          4.0465
          33         C              0.0060          3.9940
          34         C             -0.0146          4.0146
          35         C              0.0111          3.9889
          36         C              0.0472          3.9528
          37         C              0.0088          3.9912
          38         C             -0.0348          4.0348
          39         C              0.0204          3.9796
          40         C             -0.0350          4.0350
          41         C              0.0095          3.9905
          42         C             -0.0047          4.0047
          43         C             -0.0809          4.0809
          44         C             -0.0090          4.0090
          45         C              0.0594          3.9406
          46         C             -0.0444          4.0444
          47         C              0.0765          3.9235
          48         C             -0.0499          4.0499

          ---------------------
          ELECTROSTATIC MOMENTS
          ---------------------

 POINT   1           X           Y           Z (ANGS)      CHARGE
                 0.000000    0.000000    0.000000       -0.00 (A.U.)
         DX          DY          DZ         /D/  (DEBYE)
    -0.129609    0.103831    0.043076    0.171566
 ...... END OF PROPERTY EVALUATION ......
 CPU     0: STEP CPU TIME=     0.03 TOTAL CPU TIME=          1.2 (      0.0 MIN)
 TOTAL WALL CLOCK TIME=          2.2 SECONDS, CPU UTILIZATION IS    51.85%
  $VIB   
          IVIB=   0 IATOM=   0 ICOORD=   0 E=     -207.5661815992
  7.800161277E-05 7.776679046E-05-1.208658692E-04-1.608020239E-05-1.871990139E-04
  1.375812628E-04-2.027370852E-05 2.420653091E-04 2.171217322E-04-8.506947577E-05
 -1.731930600E-04-1.830276803E-04 5.036121480E-05-1.161723069E-04-1.711154903E-04
  2.484931764E-04-2.356077385E-04-1.193568155E-04-1.276273832E-04 1.061500946E-04
 -3.780672213E-05-3.590004037E-05-1.054678603E-04-1.377746515E-04 1.359082633E-04
  1.490083491E-04-3.131300256E-05 4.052077102E-04 4.875335533E-07 7.249715359E-05
 -1.861911135E-04-1.944226485E-04-3.185405050E-04 4.136736889E-05 1.477590477E-04
 -1.714895840E-05 2.796414732E-04-2.006947400E-06 1.684356351E-04-3.109380364E-04
 -3.040689111E-04-2.918246524E-04 3.306283005E-05 3.613798536E-04 1.599343816E-04
  5.782988402E-05 6.347586075E-05 6.021728355E-05 2.172442699E-05-1.808898553E-06
  4.868927589E-05 3.379668189E-05-8.609726798E-05 1.446047392E-04-4.553627670E-06
 -7.955251741E-05 8.422022262E-05 3.101929366E-04-3.817266869E-05-3.970771912E-05
 -3.127825636E-04 2.869777310E-04-9.598699835E-05-2.505225506E-04-3.669677901E-04
 -8.666681551E-05 2.196938792E-04-6.004893467E-05 3.398088927E-04-3.651198395E-05
 -9.490470404E-05-9.988855186E-05-1.191676033E-04-4.998195172E-06 7.404543763E-05
 -1.018290258E-04 1.536026649E-04-1.600142047E-04 5.345013455E-05 7.747451933E-05
  1.610862474E-04-1.218851101E-04-1.539714415E-04-8.267358570E-05 1.278247487E-04
  4.498668875E-05-2.346088130E-04 1.124459063E-04 4.444563625E-05-2.837821769E-05
 -1.275365595E-05-1.749561764E-05 3.251756385E-04 8.347316273E-06 1.062329128E-04
 -7.302252944E-05-6.962966363E-05-1.235803152E-04 6.546625681E-05-1.668674074E-04
  1.368735092E-05 3.378492523E-04 9.867691031E-05 2.781208434E-04-1.534739741E-04
 -3.092349134E-04 3.323669457E-04-3.363888660E-05 1.928081425E-04-1.526995184E-04
  2.823469444E-04-2.349857906E-04 2.075860296E-04-1.896991215E-04 3.295097378E-05
 -1.898128896E-04-6.584278943E-05-4.330846743E-05-6.399058145E-05 1.271266671E-04
 -1.239708470E-04 2.529929245E-04 5.452555158E-05 1.639562287E-04 3.281171203E-05
 -2.634390627E-05 1.500486260E-04-3.006609552E-04 5.822453012E-05 1.072842787E-05
  1.817071112E-04 5.571325186E-05-1.304630245E-04-1.989916668E-04 2.299707248E-04
 -2.335200352E-05 8.526670175E-05-1.567860232E-05 4.097965257E-05 1.600387471E-04
 -2.753895185E-04-6.360032744E-05-1.544989094E-04-1.148525005E-04
 -1.296087874E-01 1.038307648E-01 4.307632679E-02
 ......END OF GEOMETRY SEARCH......
 CPU     0: STEP CPU TIME=     0.00 TOTAL CPU TIME=          1.2 (      0.0 MIN)
 TOTAL WALL CLOCK TIME=          2.2 SECONDS, CPU UTILIZATION IS    51.48%
                580000  WORDS OF DYNAMIC MEMORY USED
 EXECUTION OF GAMESS TERMINATED NORMALLY 21:11:00 27-MAY-2023    
 DDI: 263640 bytes (0.3 MB / 0 MWords) used by master data server.

 ----------------------------------------
 CPU timing information for all processes
 ========================================
 0: 0.796875 + 0.375000 = 1.171875
 1: 1.328125 + 0.328125 = 1.656250
 2: 0.531250 + 0.890625 = 1.421875
 3: 1.078125 + 0.984375 = 2.062500
 ----------------------------------------
           Disk usage (in bytes)       
 ========================================
 ----------------------------------------
            Local date and time          
 ========================================
27.05.2023 - 21:11:00,37                          
