          *******************************************************
          *                                                     *
          *          GAMESS VERSION = 30 SEP 2022 (R2)          *
          *                                                     *
          *              doi.org/10.1063/5.0005188              *
          *                                                     *
          *************** 64 BIT WINDOWS VERSION ****************

  GAMESS HAS BEEN MADE POSSIBLE WITH IMPORTANT CONTRIBUTIONS FROM
  THE FOLLOWING INDIVIDUALS (IN ALPHABETICAL ORDER):

     IVANA ADAMOVIC, CHRISTINE AIKENS, TOMOKO AKAMA,
     MELISA ALKAN, YURI ALEXEEV, YURIKO AOKI, POOJA ARORA,
     TOSHIO ASADA, ANDREY ASADCHEV, KIM K. BALDRIDGE,
     PRADIPTA BANDYOPADHYAY, TAYLOR A. BARNES, MARIA BARYSZ,
     ROB BELL, JONATHAN BENTZ, COLLEEN BERTONI,
     JERRY A. BOATZ, BRETT BODE, KURT BRORSEN, KURT R. BRORSEN,
     LAIMUTIS BYTAUTAS, CALEB CARLIN, LAURA CARRINGTON,
     GALINA CHABAN, BENOIT CHAMPAGNE, WEI CHEN, MAHITO CHIBA,
     DAN CHIPMAN, CHEOL HO CHOI, TANNER CULPITT,
     DIPAYAN DATTA, PAUL DAY, ALBERT DEFUSCO,
     NUWAN DESILVA, J. EMILIANO DEUSTUA,
     TIM DUDLEY, MICHEL DUPUIS, STEVEN T. ELBERT,
     DMITRI FEDOROV, KATHERINE FERRERAS, MICHAEL FILATOV,
     ALEX FINDLATER,GRAHAM FLETCHER, MARK FREITAG,
     CHRISTIAN FRIEDL, DAVID GARMER, 
     IGOR S. GERASIMOV, KURT GLAESEMANN,
     MARK S. GORDON, JEFFREY GOUR, FENG LONG GU,
     EMILIE B. GUIDEZ, ANASTASIA GUNINA, SHARON HAMMES-SCHIFFER,
     MASATAKE HARUTA, KIMIHIKO HIRAO, YASUHIRO IKABATA,
     TZVETELIN IORDANOV, STEPHAN IRLE, KAZUYA ISHIMURA,
     JOE IVANIC, FRANK JENSEN, JAN H. JENSEN, VISVALDAS KAIRYS,
     MUNEAKI KAMIYA, MICHIO KATOUDA, NAOAKI KAWAKAMI, DAN KEMP,
     BERNARD KIRTMAN, KAZUO KITAURA, MARIUSZ KLOBUKOWSKI,
     MASATO KOBAYASHI, KONSTANTIN KOMAROV, PRAKASHAN KORAMBATH,
     JACEK KORCHOWIEC, SHIRO KOSEKI, KAROL KOWALSKI,
     JIMMY KROMANN, STANISLAW KUCHARSKI, HENRY KURTZ,
     SAROM SOK LEANG, SEUNGHOON LEE, HUI LI, SHUHUA LI, WEI LI,
     JESSE LUTZ, ALEKSANDR O. LYKHIN, MARCIN MAKOWSKI,
     JOANI MATO, NIKITA MATSUNAGA, BENEDETTA MENNUCCI,
     GRANT MERRILL, NORIYUKI MINEZAWA, VLADIMIR MIRONOV,
     EISAKU MIYOSHI, JOHN A. MONTGOMERY JR., HIROTOSHI MORI,
     JONATHAN MULLIN, MONIKA MUSIAL, SHIGERU NAGASE,
     TAKESHI NAGATA, HIROMI NAKAI, TAKAHITO NAKAJIMA,
     YUYA NAKAJIMA, HARUYUKI NAKANO, HIROYA NAKATA, SEAN NEDD,
     HEATHER NETZLOFF, KIET A. NGUYEN, YOSHIO NISHIMOTO,
     BOSILJKA NJEGIC, RYAN OLSON, MIKE PAK, ROBERTO PEVERATI,
     BUU PHAM, PIOTR PIECUCH, ANNA POMOGAEVA, DAVID POOLE,
     SPENCER PRUITT, OLIVIER QUINET, LUKE ROSKOP,
     KLAUS RUEDENBERG, ANDREW SAND, TOSAPORN SATTASATHUCHANA,
     NOZOMI SAWADA, MICHAEL W. SCHMIDT, PATRICK E. SCHNEIDER,
     JUNJI SEINO, PRACHI SHARMA, JUN SHEN, JIM SHOEMAKER,
     YINAN SHU, DEJUN SI, JONATHAN SKONE, LYUDMILA SLIPCHENKO,
     TONY SMITH, JIE SONG, MARK SPACKMAN, CASPER STEINMANN,
     WALT STEVENS, PEIFENG SU, SHUJUN SU, CHET SWALINA,
     CHINAMI TAKASHIMA, TETSUYA TAKETSUGU, ZHEN TAO,
     NANDUN THELLAMUREGE, SEIKEN TOKURA, JACOPO TOMASI,
     TSUGUKI TOUMA, TAKAO TSUNEDA, HIROAKI UMEDA,
     JORGE LUIS GALVEZ VALLEJO, YALI WANG, SIMON WEBB,
     AARON WEST, THERESA L. WINDUS, MARTA WLOCH,
     PENG XU, KIYOSHI YAGI, SUSUMU YANAGISAWA, YANG YANG,
     SOOHAENG YOO, TAKESHI YOSHIKAWA, FEDERICO ZAHARIEV,
     TOBY ZENG

  WHO ARE SUPPORTED BY THEIR INSTITUTION/UNIVERSITY/COMPANY/GROUP
  (IN ALPHABETICAL ORDER):

     EP ANALYTICS,
     FACULTES UNIVERSITAIRES NOTRE-DAME DE LA PAIX,
     INSTITUTE FOR MOLECULAR SCIENCE, IOWA STATE UNIVERSITY,
     JACKSON STATE UNIVERSITY, JOHANNES KEPLER UNIVERSITY LINZ,
     KYUNGPOOK NATIONAL UNIVERSITY
     KYUSHU UNIVERSITY, MICHIGAN STATE UNIVERSITY,
     MIE UNIVERSITY, THE MOLECULAR SCIENCES SOFTWARE INSTITUTE,
     MOSCOW STATE UNIVERSITY,
     N. COPERNICUS UNIVERSITY, NAGOYA UNIVERSITY,
     NANJING UNIVERSITY, NAT. INST. OF ADVANCED INDUSTRIAL
     SCIENCE AND TECHNOLOGY, NATIONAL INST. OF STANDARDS AND
     TECHNOLOGY, NESMEYANOV INSTITUTE OF ORGANOELEMENT COMPOUNDS
     OF RUSSIAN ACADEMY OF SCIENCES, OSAKA PREFECTURE UNIVERSITY,
     PENNSYLVANIA STATE UNIVERSITY, TOKYO INSTITUTE OF TECHNOLOGY,
     UNIVERSITY OF AARHUS, UNIVERSITY OF ALBERTA,
     UNIVERSITY OF CALIFORNIA AT SANTA BARBARA,
     UNIVERSITY OF COPENHAGEN, UNIVERSITY OF IOWA,
     UNIVERSITY OF MEMPHIS, UNIVERSITY OF MINNESOTA,
     UNIVERSITY OF NEBRASKA, UNIVERSITY OF NEW ENGLAND,
     UNIVERSITY OF NOTRE DAME, UNIVERSITY OF PISA,
     UNIVERSITY OF SILESIA, UNIVERSITY OF TOKYO,
     UNIVERSITY OF ZURICH, WASEDA UNIVERSITY,
     YALE UNIVERSITY

  GAMESS SOFTWARE MANAGEMENT TEAM FOR THIS RELEASE:
     MARK S. GORDON (TEAM LEAD),
     BRETT BODE (SENIOR ADVISOR),
     GIUSEPPE BARCA,
     COLLEEN BERTONI,
     KRISTOPHER KEIPERT (ADVISOR),
     SAROM S. LEANG (DEVELOPMENT LEAD),
     BUU PHAM,
     JACKSON HAYES (WEBSITE ADMINISTRATOR),
     PENG XU


 PARALLEL VERSION RUNNING ON        2 PROCESSORS IN        2 NODES.

 EXECUTION OF GAMESS BEGUN 21:11:04 27-MAY-2023    

            ECHO OF THE FIRST FEW INPUT CARDS -
 INPUT CARD>! (Energy/Geometry) PM3                                                         
 INPUT CARD> $CONTRL                                                                        
 INPUT CARD>COORD=UNIQUE                                                                    
 INPUT CARD>ICHARG=0                                                                        
 INPUT CARD>MAXIT=200                                                                       
 INPUT CARD>MULT=1                                                                          
 INPUT CARD>RUNTYP=OPTIMIZE                                                                 
 INPUT CARD>SCFTYP=RHF                                                                      
 INPUT CARD>UNITS=ANGS                                                                      
 INPUT CARD>! DFTTYP=PBE                                                                    
 INPUT CARD> $END                                                                           
 INPUT CARD> $DFT                                                                           
 INPUT CARD>METHOD=GRID                                                                     
 INPUT CARD> $END                                                                           
 INPUT CARD> $BASIS                                                                         
 INPUT CARD>! EXTFIL=.T.                                                                    
 INPUT CARD>! GBASIS=GEGSSBAS                                                               
 INPUT CARD>! NGAUSS=6                                                                      
 INPUT CARD>GBASIS=PM3                                                                      
 INPUT CARD>! NDFUNC=1                                                                      
 INPUT CARD>! NPFUNC=1                                                                      
 INPUT CARD> $END                                                                           
 INPUT CARD> $SCF                                                                           
 INPUT CARD>DAMP=.F.                                                                        
 INPUT CARD>DEM=.F.                                                                         
 INPUT CARD>DIIS=.F.                                                                        
 INPUT CARD>DIRSCF=.T.                                                                      
 INPUT CARD>EXTRAP=.T.                                                                      
 INPUT CARD>RSTRCT=.F.                                                                      
 INPUT CARD>SHIFT=.F.                                                                       
 INPUT CARD>SOSCF=.T.                                                                       
 INPUT CARD> $END                                                                           
 INPUT CARD> $STATPT                                                                        
 INPUT CARD>METHOD=QA                                                                       
 INPUT CARD>NSTEP=100                                                                       
 INPUT CARD>OPTTOL=0.001                                                                    
 INPUT CARD> $END                                                                           
 INPUT CARD> $GUESS                                                                         
 INPUT CARD>GUESS=HUCKEL                                                                    
 INPUT CARD> $END                                                                           
 INPUT CARD> $SYSTEM                                                                        
 INPUT CARD>MWORDS=10                                                                       
 INPUT CARD> $END                                                                           
 INPUT CARD> $DATA                                                                          
 INPUT CARD>C52 FULLERENE                                                                   
 INPUT CARD>C1                                                                              
 INPUT CARD>C	6.0	4.8658	-0.6188	-0.3958                                                    
 INPUT CARD>C	6.0	3.8794	-1.4624	-0.8768                                                    
 INPUT CARD>C	6.0	1.0175	-1.9632	-0.9418                                                    
 INPUT CARD>C	6.0	1.6179	-0.9803	-1.7967                                                    
     10000000 WORDS OF MEMORY AVAILABLE

     BASIS OPTIONS
     -------------
     GBASIS=PM3          IGAUSS=       0      POLAR=NONE    
     NDFUNC=       0     NFFUNC=       0     DIFFSP=       F
     NPFUNC=       0      DIFFS=       F     BASNAM=        


     RUN TITLE
     ---------
 C52 FULLERENE                                                                   

 THE POINT GROUP OF THE MOLECULE IS C1      
 THE ORDER OF THE PRINCIPAL AXIS IS     0

 ATOM      ATOMIC                      COORDINATES (BOHR)
           CHARGE         X                   Y                   Z
 C           6.0     9.1950287111       -1.1693624412       -0.7479535459
 C           6.0     7.3310029968       -2.7635352844       -1.6569117460
 C           6.0     1.9227961925       -3.7099100591       -1.7797439352
 C           6.0     3.0573876755       -1.8524983858       -3.3952706821
 C           6.0     5.7028150857       -1.4412940108       -3.2658244520
 C           6.0    -4.9635542794       -2.7166700799       -2.7601337777
 C           6.0    -2.3727399502       -2.5076663857       -3.0840328120
 C           6.0     8.8913497448        1.0778997034       -1.9874248213
 C           6.0     1.3248868900        0.1814136948       -3.8387893715
 C           6.0     6.7359282832        0.9393827885       -3.4156797228
 C           6.0     8.2354258545        2.7886686401       -0.1753665717
 C           6.0     2.3903144019        2.5677596721       -3.1450709614
 C           6.0     4.9894435254        2.7690154898       -2.8412030225
 C           6.0     6.0061161068        3.9242049861       -0.7324577928
 C           6.0    -5.7014922776        1.4921276399       -3.2136680147
 C           6.0    -3.0534192510        1.8882142069       -3.3873338330
 C           6.0     0.7026001222        3.8903788909       -1.5365362006
 C           6.0    -1.3154382601       -0.1428632847       -3.8225377280
 C           6.0    -6.7393297900       -0.8976198442       -3.2665803424
 C           6.0     7.8365046985        1.5690394876        2.0541321487
 C           6.0     8.5716081077       -0.9010213509        1.7901374282
 C           6.0     6.6890630787       -2.5533977546        2.3733068680
 C           6.0     5.3942228320        2.1796099542        2.9313429522
 C           6.0    -2.4687380304        3.4413799962        2.4505966609
 C           6.0     0.0812582175        3.1463937696        2.7540866545
 C           6.0     0.9837913492        0.9422173775        4.0290847784
 C           6.0     3.6214708829        0.4423848537        3.9276064929
 C           6.0     4.3973923734       -2.0599902992        3.5069534880
 C           6.0     1.7702953053        4.1511610772        0.9571462128
 C           6.0     4.3269055941        3.9011503291        1.2186842895
 C           6.0    -6.0233126133        3.8293407415        0.1953976671
 C           6.0    -3.4990166389        4.3191577175        0.1921851330
 C           6.0    -1.9021981792        3.7484604692       -1.8116803044
 C           6.0    -7.4167965566        2.8100225437       -1.6916827042
 C           6.0     3.5267956109       -4.3401336760        0.2235545843
 C           6.0     6.0274700104       -3.8531512890        0.2328142417
 C           6.0    -0.6846477254       -3.8556079327       -1.4966629823
 C           6.0    -4.3182128545       -3.8988826579        1.2029995638
 C           6.0    -1.7464847579       -4.1462477897        0.9905943628
 C           6.0    -6.0337061062       -3.9587869717       -0.7351034092
 C           6.0    -4.3888886065        2.0099125605        3.4757730092
 C           6.0    -3.5950147190       -0.4754550585        3.9213703971
 C           6.0    -0.9650830619       -0.9733978563        4.0326752578
 C           6.0    -0.0549910262       -3.1911802755        2.8062430918
 C           6.0     2.4810212493       -3.5131895838        2.4965170024
 C           6.0    -5.3821285856       -2.1847122144        2.9183038428
 C           6.0    -8.2688740045       -2.8440376115       -0.1710202019
 C           6.0    -6.6559928740        2.5084222761        2.3128356364
 C           6.0    -8.5544116012        0.8868484060        1.6954621562
 C           6.0    -7.8062690827       -1.5764094190        2.0252193410
 C           6.0    -9.3029320650        1.2065900432       -0.8195741609
 C           6.0    -8.9824345374       -1.0782776486       -1.9303550965

          INTERNUCLEAR DISTANCES (ANGS.)
          ------------------------------

                1 C          2 C          3 C          4 C          5 C     

   1 C       0.0000000    1.3841990 *  4.1127777    3.5555671    2.2827836 *
   2 C       1.3841990 *  0.0000000    2.9061138 *  2.4885776 *  1.3988626 *
   3 C       4.1127777    2.9061138 *  0.0000000    1.4343732 *  2.4618743 *
   4 C       3.5555671    2.4885776 *  1.4343732 *  0.0000000    1.4183660 *
   5 C       2.2827836 *  1.3988626 *  2.4618743 *  1.4183660 *  0.0000000  
   6 C       7.6118520    6.5321875    3.7181815    4.2822735    5.6909007  
   7 C       6.2850040    5.1920020    2.4592906 *  2.8990221 *  4.3115701  
   8 C       1.3675620 *  2.2010557 *  4.4754442    3.5341901    2.2542824 *
   9 C       4.5310984    3.7233456    2.3510937 *  1.4331881 *  2.4892559 *
  10 C       2.2207007 *  2.1920321 *  3.6455070    2.4437837 *  1.3755964 *
  11 C       2.1763732 *  3.0783349    4.8688576    4.0550412    3.0791401  
  12 C       4.2995901    3.9261859    3.4086503    2.3692884 *  2.7527266 *
  13 C       3.2439671    3.2403008    3.8345272    2.6668760 *  2.2708986 *
  14 C       3.1800793    3.6407937    4.6147783    3.7101278    3.1439773  
  15 C       8.1133351    7.3014973    4.9428415    4.9623589    6.2314055  
  16 C       6.8249420    6.0905832    4.0538590    3.7914712    4.9576885  
  17 C       5.2477787    4.9704588    4.0754352    3.4286667    3.9747984  
  18 C       5.8203889    4.9164754    2.7691189 *  2.4948345 *  3.7883966  
  19 C       8.5379942    7.5590324    4.8831359    5.2092125    6.5903827  
  20 C       2.1944028 *  3.0306006    4.6597013    4.2414430    3.4260570  
  21 C       1.3902934 *  2.1747966 *  4.2611292    4.0370499    3.0894444  
  22 C       2.2412193 *  2.1624456 *  3.4008708    3.6261893    3.0860273  
  23 C       3.3131299    3.7132215    4.3934967    4.1581594    3.8016536  
  24 C       6.8493839    6.5114077    4.9732050    5.0959901    5.8758279  
  25 C       5.6488488    5.4723930    4.4575381    4.4796304    4.9891091  
  26 C       5.1497208    4.9173710    3.9694118    4.3389725    4.7674733  
  27 C       3.9431034    3.9325168    3.8415826    4.0718877    4.0861835  
  28 C       3.4259789    3.1647521    3.2099314    3.7223158    3.6646216  
  29 C       4.9171360    4.8950410    4.4055480    3.9827072    4.2523515  
  30 C       3.8625005    4.1570465    4.5119476    3.9601672    3.7622105  
  31 C       8.4911904    7.9417995    5.8898672    5.9784223    7.0454485  
  32 C       7.3352920    6.9173208    5.2319144    5.1290794    6.0292390  
  33 C       6.4478232    5.9795167    4.4355943    4.0465970    4.9325540  
  34 C       9.0530902    8.3429513    6.0276348    6.1336608    7.3453886  
  35 C       3.4751471    2.3955901 *  1.3983904 *  2.3370572 *  2.6624557 *
  36 C       2.2574267 *  1.3447273 *  2.4203283 *  2.6976105 *  2.2552470 *
  37 C       5.4323721    4.2817261    1.3900477 *  2.4605313 *  3.7328017  
  38 C       7.3680060    6.3759235    3.6617637    4.7251487    5.9501536  
  39 C       6.0705906    5.0569515    2.4439046 *  3.6499534    4.7604176  
  40 C       8.1927751    7.1172630    4.2485763    5.1349537    6.4916106  
  41 C       7.7134816    7.2264403    5.2963795    5.7380114    6.6769179  
  42 C       7.2144795    6.6037082    4.5339912    5.2834034    6.2397662  
  43 C       5.9428439    5.4069651    3.7273227    4.4941909    5.2371946  
  44 C       5.3518353    4.5722733    2.6570811 *  3.7395179    4.5239065  
  45 C       4.1363254    3.4022136    2.2844725 *  3.2536120    3.6615581  
  46 C       7.9722602    7.1564517    4.6663655    5.5801741    6.7285067  
  47 C       9.2889117    8.2925725    5.4791665    6.2537724    7.6090021  
  48 C       8.7618301    8.1841070    6.0105891    6.3929752    7.4736211  
  49 C       9.5434137    8.8058355    6.3275777    6.8640932    8.0827927  
  50 C       9.1181448    8.2677805    5.6422377    6.4263337    7.6777903  
  51 C       9.8691888    9.0603865    6.5050258    6.8746161    8.1666277  
  52 C       9.6395492    8.6798476    5.9369874    6.4312502    7.8055315  

                6 C          7 C          8 C          9 C         10 C     

   1 C       7.6118520    6.2850040    1.3675620 *  4.5310984    2.2207007 *
   2 C       6.5321875    5.1920020    2.2010557 *  3.7233456    2.1920321 *
   3 C       3.7181815    2.4592906 *  4.4754442    2.3510937 *  3.6455070  
   4 C       4.2822735    2.8990221 *  3.5341901    1.4331881 *  2.4437837 *
   5 C       5.6909007    4.3115701    2.2542824 *  2.4892559 *  1.3755964 *
   6 C       0.0000000    1.3860921 *  7.6126926    3.7082784    6.4956234  
   7 C       1.3860921 *  0.0000000    6.2822623    2.4521673 *  5.1566952  
   8 C       7.6126926    6.2822623    0.0000000    4.1493233    1.3702463 *
   9 C       3.7082784    2.4521673 *  4.1493233    0.0000000    2.9000124 *
  10 C       6.4956234    5.1566952    1.3702463 *  2.9000124 *  0.0000000  
  11 C       7.6904376    6.4604001    1.3636479 *  4.3628729    2.1277914 *
  12 C       4.7963652    3.6834067    3.5821543    1.4308378 *  2.4599173 *
  13 C       6.0140589    4.7949440    2.2952926 *  2.4319041 *  1.3725789 *
  14 C       6.8700651    5.7264730    2.2451694 *  3.5723066    2.1587234 *
  15 C       2.2738756 *  2.7545569 *  7.7525152    3.7967777    6.5889637  
  16 C       2.6589224 *  2.3593878 *  6.3785916    2.4981731 *  5.2045977  
  17 C       4.6512119    3.8447357    4.5879686    2.3334277 *  3.6906313  
  18 C       2.4285681 *  1.4254006 *  5.5256957    1.4077245 *  4.3043062  
  19 C       1.3716628 *  2.4646643 *  8.3646346    4.3160667    7.1971878  
  20 C       7.5837945    6.4213636    2.2255725 *  4.7050136    2.9712526 *
  21 C       7.6172518    6.3966476    2.2630195 *  4.8894217    3.0791269  
  22 C       6.7387011    5.5978080    3.2211367    4.5780322    3.5778831  
  23 C       6.7695404    5.7600407    3.2464901    4.3116411    3.4950959  
  24 C       4.4682556    4.3001144    6.5740273    4.2524042    5.9258182  
  25 C       5.0266903    4.4925292    5.4063766    3.8815695    4.9421174  
  26 C       5.1537590    4.5449038    5.2584958    4.1868125    4.9785317  
  27 C       5.9964949    5.1250059    4.2056476    4.2879461    4.2291396  
  28 C       5.9713833    5.0055862    4.1068450    4.3772946    4.1797580  
  29 C       5.4566875    4.6686467    4.3900938    3.3029428    3.8920487  
  30 C       6.3927412    5.4087910    3.3082691    3.6825033    3.1773905  
  31 C       3.8418600    4.2413154    8.1083752    4.8377937    7.1818139  
  32 C       4.1114018    4.0511493    6.8747769    3.9825546    6.0148081  
  33 C       3.8184962    3.3875369    5.8846665    2.7622379 *  4.8810961  
  34 C       3.2493516    3.9479234    8.6798515    4.9623364    7.6093237  
  35 C       4.8391248    3.7081165    4.2009461    3.4210984    3.7944574  
  36 C       6.0579111    4.8319224    3.2382246    3.9234116    3.2093544  
  37 C       2.4366632 *  1.4185844 *  5.7062896    2.6889979 *  4.7842865  
  38 C       2.2150046 *  2.5977696 *  7.6582702    4.5494790    6.8371471  
  39 C       2.7221111 *  2.3475278 *  6.4664472    3.7970053    5.7295558  
  40 C       1.3787913 *  2.4264894 *  8.3619017    4.7603316    7.3751652  
  41 C       4.1518452    4.3477773    7.6150042    5.0060688    6.9481538  
  42 C       3.7989783    3.9137483    7.3560600    4.8746672    6.7470090  
  43 C       4.2719069    3.9238774    6.2073798    4.3809200    5.7590994  
  44 C       3.9353039    3.3690975    5.8267512    4.0104133    5.3415577  
  45 C       4.8409893    3.9498256    4.7999657    3.9288639    4.5176896  
  46 C       3.0261739    3.5572665    8.1713431    5.1913587    7.4222013  
  47 C       2.2228512 *  3.4846708    9.3644070    5.6660561    8.3667957  
  48 C       3.9564965    4.5099312    8.5697065    5.4726216    7.7524255  
  49 C       3.5785819    4.5082475    9.4359107    6.0039145    8.5314307  
  50 C       3.0065850    3.9774610    9.1954676    5.8174501    8.3235409  
  51 C       3.2615500    4.3299194    9.6480540    5.8716546    8.5990278  
  52 C       2.3382367 *  3.6302557    9.5270207    5.5870147    8.4228010  

               11 C         12 C         13 C         14 C         15 C     

   1 C       2.1763732 *  4.2995901    3.2439671    3.1800793    8.1133351  
   2 C       3.0783349    3.9261859    3.2403008    3.6407937    7.3014973  
   3 C       4.8688576    3.4086503    3.8345272    4.6147783    4.9428415  
   4 C       4.0550412    2.3692884 *  2.6668760 *  3.7101278    4.9623589  
   5 C       3.0791401    2.7527266 *  2.2708986 *  3.1439773    6.2314055  
   6 C       7.6904376    4.7963652    6.0140589    6.8700651    2.2738756 *
   7 C       6.4604001    3.6834067    4.7949440    5.7264730    2.7545569 *
   8 C       1.3636479 *  3.5821543    2.2952926 *  2.2451694 *  7.7525152  
   9 C       4.3628729    1.4308378 *  2.4319041 *  3.5723066    3.7967777  
  10 C       2.1277914 *  2.4599173 *  1.3725789 *  2.1587234 *  6.5889637  
  11 C       0.0000000    3.4713896    2.2227631 *  1.3563480 *  7.5794363  
  12 C       3.4713896    0.0000000    1.3888571 *  2.4096264 *  4.3198183  
  13 C       2.2227631 *  1.3888571 *  0.0000000    1.3814357 *  5.7010169  
  14 C       1.3563480 *  2.4096264 *  1.3814357 *  0.0000000    6.4624546  
  15 C       7.5794363    4.3198183    5.7010169    6.4624546    0.0000000  
  16 C       6.2291507    2.9058871 *  4.2912886    5.1105704    1.4198660 *
  17 C       4.0924945    1.4184601 *  2.4443543 *  2.8386287 *  3.7259783  
  18 C       5.6280866    2.4559207 *  3.7115509    4.7240681    2.4978841 *
  19 C       8.3231967    5.1679252    6.5067133    7.3347510    1.3789916 *
  20 C       1.3612613 *  4.0193144    3.0632922    2.1600682 *  7.6873446  
  21 C       2.2193947 *  4.5704839    3.6567024    3.1851040    8.1032680  
  22 C       3.2372782    4.5876337    4.0442405    3.8185750    7.5043683  
  23 C       2.2510277 *  3.5928342    3.0780441    2.1716561 *  6.7217736  
  24 C       5.8425779    3.9488502    4.8522896    4.7973970    3.6020679  
  25 C       4.5889192    3.3662752    3.9437008    3.6610853    4.4836928  
  26 C       4.5420858    3.9631527    4.3180116    3.9877740    5.2239441  
  27 C       3.4952955    3.9619699    3.8561499    3.3269136    6.2392983  
  28 C       3.8085867    4.4177224    4.2323897    3.9731026    6.6888458  
  29 C       3.5473386    2.3499146 *  2.7344027 *  2.4162287 *  4.7417872  
  30 C       2.2734630 *  2.6230690 *  2.2577563 *  1.3622830 *  5.9404218  
  31 C       7.5680134    4.8366753    6.0711653    6.3848052    2.1938761 *
  32 C       6.2652135    3.7000387    4.8401162    5.0579630    2.6162361 *
  33 C       5.4577173    2.4592598 *  3.7236167    4.2247121    2.4531942 *
  34 C       8.3215833    5.2479459    6.5932570    7.1455801    1.3996268 *
  35 C       4.5259401    4.1112072    4.1691672    4.5938036    6.0565040  
  36 C       3.7101119    4.2947260    3.9023072    4.1471927    7.0604780  
  37 C       5.9272564    3.8681479    4.6702324    5.4450210    3.9852040  
  38 C       7.5621832    5.4412062    6.4257222    6.9307770    3.7598930  
  39 C       6.4614053    4.7121958    5.4962201    5.9917246    4.2699451  
  40 C       8.3578113    5.7815581    6.9241141    7.6153532    3.1735690  
  41 C       6.9664853    5.0231260    5.9970875    6.0203034    3.6177945  
  42 C       6.8466024    5.1583224    6.0324329    6.1072841    4.0721694  
  43 C       5.7119316    4.5925308    5.2040553    5.1656652    4.7632384  
  44 C       5.6346718    4.5694401    5.0994651    5.2888117    5.0217688  
  45 C       4.7320860    4.3897378    4.5598236    4.6785796    5.9072145  
  46 C       7.8443830    5.7910798    6.8031873    7.1063411    3.7873058  
  47 C       9.2283310    6.5187856    7.7487746    8.3653477    3.1150289  
  48 C       7.9908225    5.5909759    6.7404847    6.9321666    3.0161325  
  49 C       8.9962554    6.3950200    7.6238244    7.9751295    3.0216471  
  50 C       8.8742955    6.4350293    7.6005595    8.0016697    3.4004300  
  51 C       9.3248175    6.3499667    7.6831025    8.2279826    2.2934560 *
  52 C       9.3843282    6.3525198    7.6839140    8.3856887    2.3077503 *

               16 C         17 C         18 C         19 C         20 C     

   1 C       6.8249420    5.2477787    5.8203889    8.5379942    2.1944028 *
   2 C       6.0905832    4.9704588    4.9164754    7.5590324    3.0306006  
   3 C       4.0538590    4.0754352    2.7691189 *  4.8831359    4.6597013  
   4 C       3.7914712    3.4286667    2.4948345 *  5.2092125    4.2414430  
   5 C       4.9576885    3.9747984    3.7883966    6.5903827    3.4260570  
   6 C       2.6589224 *  4.6512119    2.4285681 *  1.3716628 *  7.5837945  
   7 C       2.3593878 *  3.8447357    1.4254006 *  2.4646643 *  6.4213636  
   8 C       6.3785916    4.5879686    5.5256957    8.3646346    2.2255725 *
   9 C       2.4981731 *  2.3334277 *  1.4077245 *  4.3160667    4.7050136  
  10 C       5.2045977    3.6906313    4.3043062    7.1971878    2.9712526 *
  11 C       6.2291507    4.0924945    5.6280866    8.3231967    1.3612613 *
  12 C       2.9058871 *  1.4184601 *  2.4559207 *  5.1679252    4.0193144  
  13 C       4.2912886    2.4443543 *  3.7115509    6.5067133    3.0632922  
  14 C       5.1105704    2.8386287 *  4.7240681    7.3347510    2.1600682 *
  15 C       1.4198660 *  3.7259783    2.4978841 *  1.3789916 *  7.6873446  
  16 C       0.0000000    2.4560778 *  1.4332066 *  2.4457717 *  6.4442811  
  17 C       2.4560778 *  0.0000000    2.6756347 *  4.7714157    4.4012188  
  18 C       1.4332066 *  2.6756347 *  0.0000000    2.9127516 *  5.8263333  
  19 C       2.4457717 *  4.7714157    2.9127516 *  0.0000000    8.3141365  
  20 C       6.4442811    4.4012188    5.8263333    8.3141365    0.0000000  
  21 C       6.8940912    5.1833867    6.0296169    8.5326484    1.3708930 *
  22 C       6.4339959    5.0935027    5.5062719    7.7569454    2.2707182 *
  23 C       5.5845939    3.5458824    5.1856222    7.3915795    1.4107349 *
  24 C       3.2117009    2.7063789 *  3.8716510    4.4195326    5.5465468  
  25 C       3.7090103    2.3277198 *  3.9607763    5.2685143    4.2042735  
  26 C       4.4963641    3.3362039    4.3672942    5.7057561    3.7884443  
  27 C       5.2958174    3.7517631    4.8724647    6.7123819    2.5126597 *
  28 C       5.7637609    4.5673598    5.0211435    6.9251178    2.7551816 *
  29 C       3.6380179    1.4420864 *  3.7718786    5.6931154    3.5367741  
  30 C       4.7253042    2.4091776 *  4.5399587    6.8099039    2.2732459 *
  31 C       2.6682397 *  3.6754483    3.8917485    3.1235863    7.4960043  
  32 C       2.3018298 *  2.4149224 *  3.3799328    3.7297596    6.2506573  
  33 C       1.4266711 *  1.3881016 *  2.3385944 *  3.6317384    5.6633516  
  34 C       2.5247925 *  4.3352454    3.7600139    2.1616017 *  8.3374284  
  35 C       5.1613113    4.6979299    4.0104224    6.0201971    3.9896924  
  36 C       5.9993695    5.0604150    4.8537532    7.1775653    3.1746206  
  37 C       3.4366878    4.1642705    2.3422931 *  3.6868685    5.6660277  
  38 C       3.9657008    5.1137860    3.6807449    3.1237836    7.0672361  
  39 C       4.0053183    4.6426604    3.3207350    3.8744167    5.9312557  
  40 C       3.7457324    5.4899308    3.6028996    2.1349547 *  8.0379124  
  41 C       3.7004788    3.9095655    4.3426685    4.0797351    6.5171712  
  42 C       4.0749196    4.3417935    4.2753854    4.1577163    6.2242172  
  43 C       4.3510634    4.0110661    4.1840793    4.9252389    4.9597931  
  44 C       4.5259728    4.4141807    3.9181171    4.9307278    4.8931320  
  45 C       5.1421462    4.5595653    4.2893613    5.9180229    3.9139789  
  46 C       4.1591003    5.1244541    4.3038107    3.4192957    7.2859408  
  47 C       4.0969342    5.9800389    4.3950454    2.0974747 *  8.9148664  
  48 C       3.5833985    4.4550426    4.5272852    3.4594576    7.6864130  
  49 C       3.9986499    5.4265643    4.8474301    2.9511165 *  8.6832838  
  50 C       4.2297429    5.6741210    4.6850032    2.8791453 *  8.4435044  
  51 C       3.5935153    5.4949759    4.5717629    2.1810575 *  9.1984014  
  52 C       3.5920216    5.7639656    4.2081467    1.3849544 *  9.2532077  

               21 C         22 C         23 C         24 C         25 C     

   1 C       1.3902934 *  2.2412193 *  3.3131299    6.8493839    5.6488488  
   2 C       2.1747966 *  2.1624456 *  3.7132215    6.5114077    5.4723930  
   3 C       4.2611292    3.4008708    4.3934967    4.9732050    4.4575381  
   4 C       4.0370499    3.6261893    4.1581594    5.0959901    4.4796304  
   5 C       3.0894444    3.0860273    3.8016536    5.8758279    4.9891091  
   6 C       7.6172518    6.7387011    6.7695404    4.4682556    5.0266903  
   7 C       6.3966476    5.5978080    5.7600407    4.3001144    4.4925292  
   8 C       2.2630195 *  3.2211367    3.2464901    6.5740273    5.4063766  
   9 C       4.8894217    4.5780322    4.3116411    4.2524042    3.8815695  
  10 C       3.0791269    3.5778831    3.4950959    5.9258182    4.9421174  
  11 C       2.2193947 *  3.2372782    2.2510277 *  5.8425779    4.5889192  
  12 C       4.5704839    4.5876337    3.5928342    3.9488502    3.3662752  
  13 C       3.6567024    4.0442405    3.0780441    4.8522896    3.9437008  
  14 C       3.1851040    3.8185750    2.1716561 *  4.7973970    3.6610853  
  15 C       8.1032680    7.5043683    6.7217736    3.6020679    4.4836928  
  16 C       6.8940912    6.4339959    5.5845939    3.2117009    3.7090103  
  17 C       5.1833867    5.0935027    3.5458824    2.7063789 *  2.3277198 *
  18 C       6.0296169    5.5062719    5.1856222    3.8716510    3.9607763  
  19 C       8.5326484    7.7569454    7.3915795    4.4195326    5.2685143  
  20 C       1.3708930 *  2.2707182 *  1.4107349 *  5.5465468    4.2042735  
  21 C       0.0000000    1.3609643 *  2.4185436 *  6.2876835    5.0033648  
  22 C       1.3609643 *  0.0000000    2.6133737 *  5.7922228    4.6222263  
  23 C       2.4185436 *  2.6133737 *  0.0000000    4.2218043    2.8592071 *
  24 C       6.2876835    5.7922228    4.2218043    0.0000000    1.3678596 *
  25 C       5.0033648    4.6222263    2.8592071 *  1.3678596 *  0.0000000  
  26 C       4.2985800    3.6475267    2.4926486 *  2.4051323 *  1.4296191 *
  27 C       2.9405010 *  2.4134592 *  1.4153035 *  3.6763987    2.4377743 *
  28 C       2.4659173 *  1.3779312 *  2.3247214 *  4.6892603    3.6008269  
  29 C       4.5050447    4.4636625    2.4202162 *  2.4078197 *  1.4091821 *
  30 C       3.4050782    3.6881085    1.4036737 *  3.6628000    2.4222588 *
  31 C       8.1625695    7.6151371    6.2739788    2.2370768 *  3.5212796  
  32 C       7.0104243    6.6048927    5.0527522    1.3932937 *  2.4109285 *
  33 C       6.3565486    6.0575728    4.6794148    2.2811327 *  2.6534327 *
  34 C       8.8788941    8.2705121    7.2149200    3.4311085    4.6162590  
  35 C       3.3355721    2.2334663 *  3.8643152    5.3302124    4.5620915  
  36 C       2.2208407 *  1.3706379 *  3.5132455    6.0408381    5.0399204  
  37 C       5.4278965    4.4603091    5.1027550    4.4905256    4.3535407  
  38 C       7.0099387    5.9007433    6.1317613    4.0597419    4.4713798  
  39 C       5.7394098    4.6013333    5.1516074    4.1066798    4.0864399  
  40 C       8.0086388    6.9704152    7.1335037    4.6621733    5.2931172  
  41 C       7.0856296    6.3668676    5.1857878    1.3786122 *  2.4704493 *
  42 C       6.5402106    5.6121886    4.9876441    2.2928262 *  2.7999089 *
  43 C       5.1843896    4.2279857    3.8010682    2.6061222 *  2.3488736 *
  44 C       4.7536352    3.5920365    4.0493288    3.7397340    3.3545885  
  45 C       3.5267845    2.2849183 *  3.3918480    4.5172110    3.7484003  
  46 C       7.4391742    6.3972828    6.1525186    3.3618172    4.0403733  
  47 C       9.0305503    8.0305669    7.8764244    4.7337242    5.6541847  
  48 C       8.2622407    7.5529037    6.3874646    2.2713044 *  3.5887529  
  49 C       9.1120879    8.2771558    7.4417268    3.5153975    4.7567420  
  50 C       8.6750581    7.6902096    7.2784811    3.8831802    4.8801851  
  51 C       9.6239260    8.8560292    8.0431897    4.1799815    5.4120351  
  52 C       9.4960101    8.6353770    8.2139870    4.7933144    5.8435731  

               26 C         27 C         28 C         29 C         30 C     

   1 C       5.1497208    3.9431034    3.4259789    4.9171360    3.8625005  
   2 C       4.9173710    3.9325168    3.1647521    4.8950410    4.1570465  
   3 C       3.9694118    3.8415826    3.2099314    4.4055480    4.5119476  
   4 C       4.3389725    4.0718877    3.7223158    3.9827072    3.9601672  
   5 C       4.7674733    4.0861835    3.6646216    4.2523515    3.7622105  
   6 C       5.1537590    5.9964949    5.9713833    5.4566875    6.3927412  
   7 C       4.5449038    5.1250059    5.0055862    4.6686467    5.4087910  
   8 C       5.2584958    4.2056476    4.1068450    4.3900938    3.3082691  
   9 C       4.1868125    4.2879461    4.3772946    3.3029428    3.6825033  
  10 C       4.9785317    4.2291396    4.1797580    3.8920487    3.1773905  
  11 C       4.5420858    3.4952955    3.8085867    3.5473386    2.2734630 *
  12 C       3.9631527    3.9619699    4.4177224    2.3499146 *  2.6230690 *
  13 C       4.3180116    3.8561499    4.2323897    2.7344027 *  2.2577563 *
  14 C       3.9877740    3.3269136    3.9731026    2.4162287 *  1.3622830 *
  15 C       5.2239441    6.2392983    6.6888458    4.7417872    5.9404218  
  16 C       4.4963641    5.2958174    5.7637609    3.6380179    4.7253042  
  17 C       3.3362039    3.7517631    4.5673598    1.4420864 *  2.4091776 *
  18 C       4.3672942    4.8724647    5.0211435    3.7718786    4.5399587  
  19 C       5.7057561    6.7123819    6.9251178    5.6931154    6.8099039  
  20 C       3.7884443    2.5126597 *  2.7551816 *  3.5367741    2.2732459 *
  21 C       4.2985800    2.9405010 *  2.4659173 *  4.5050447    3.4050782  
  22 C       3.6475267    2.4134592 *  1.3779312 *  4.4636625    3.6881085  
  23 C       2.4926486 *  1.4153035 *  2.3247214 *  2.4202162 *  1.4036737 *
  24 C       2.4051323 *  3.6763987    4.6892603    2.4078197 *  3.6628000  
  25 C       1.4296191 *  2.4377743 *  3.6008269    1.4091821 *  2.4222588 *
  26 C       0.0000000    1.4216545 *  2.4214439 *  2.3873293 *  2.7916318 *
  27 C       1.4216545 *  0.0000000    1.4041541 *  2.6985708 *  2.3546280 *
  28 C       2.4214439 *  1.4041541 *  0.0000000    3.8152747    3.3791331  
  29 C       2.3873293 *  2.6985708 *  3.8152747    0.0000000    1.3663807 *
  30 C       2.7916318 *  2.3546280 *  3.3791331    1.3663807 *  0.0000000  
  31 C       4.4943365    5.7586230    6.5720686    4.1473506    5.5039341  
  32 C       3.5976695    4.7237505    5.6509216    2.8190319 *  4.1826261  
  33 C       3.7537461    4.5638422    5.3368465    2.4431591 *  3.6665591  
  34 C       5.4683691    6.6732056    7.3003047    5.1091674    6.4284764  
  35 C       3.6986485    3.2014763    2.1649560 *  4.6049227    4.4131359  
  36 C       4.1950750    3.2574267    2.1555493 *  4.8128143    4.2331882  
  37 C       3.9718870    4.3133010    3.8917938    4.6180009    5.0937558  
  38 C       4.0830493    5.0008976    4.8687615    5.3426879    6.1616512  
  39 C       3.4530309    4.0473079    3.6826996    4.7689369    5.3365292  
  40 C       5.1838470    6.1332903    6.0430163    6.0228044    6.9589962  
  41 C       2.9134472 *  4.3259117    5.1241142    3.6990956    4.8683242  
  42 C       2.5371200 *  3.8495648    4.3172907    4.0639556    4.9983028  
  43 C       1.4460882 *  2.5407098 *  2.9087044 *  3.4781995    4.0882122  
  44 C       2.3463141 *  2.7989737 *  2.4590693 *  4.1214995    4.4909198  
  45 C       2.6161440 *  2.3063395 *  1.3804579 *  4.1538582    4.0994191  
  46 C       3.7989052    4.9918312    5.1848865    5.1617598    6.1300513  
  47 C       5.7383027    6.8788893    6.9918819    6.5024340    7.5966431  
  48 C       4.2256323    5.6128286    6.3605616    4.5992419    5.8869849  
  49 C       5.1963529    6.5547981    7.0940268    5.7434730    7.0051889  
  50 C       4.9535095    6.2229050    6.5103587    5.9318959    7.0574885  
  51 C       6.0195177    7.2972742    7.7968531    6.1358005    7.4308928  
  52 C       6.2371791    7.3987715    7.6602470    6.5092220    7.7022051  

               31 C         32 C         33 C         34 C         35 C     

   1 C       8.4911904    7.3352920    6.4478232    9.0530902    3.4751471  
   2 C       7.9417995    6.9173208    5.9795167    8.3429513    2.3955901 *
   3 C       5.8898672    5.2319144    4.4355943    6.0276348    1.3983904 *
   4 C       5.9784223    5.1290794    4.0465970    6.1336608    2.3370572 *
   5 C       7.0454485    6.0292390    4.9325540    7.3453886    2.6624557 *
   6 C       3.8418600    4.1114018    3.8184962    3.2493516    4.8391248  
   7 C       4.2413154    4.0511493    3.3875369    3.9479234    3.7081165  
   8 C       8.1083752    6.8747769    5.8846665    8.6798515    4.2009461  
   9 C       4.8377937    3.9825546    2.7622379 *  4.9623364    3.4210984  
  10 C       7.1818139    6.0148081    4.8810961    7.6093237    3.7944574  
  11 C       7.5680134    6.2652135    5.4577173    8.3215833    4.5259401  
  12 C       4.8366753    3.7000387    2.4592598 *  5.2479459    4.1112072  
  13 C       6.0711653    4.8401162    3.7236167    6.5932570    4.1691672  
  14 C       6.3848052    5.0579630    4.2247121    7.1455801    4.5938036  
  15 C       2.1938761 *  2.6162361 *  2.4531942 *  1.3996268 *  6.0565040  
  16 C       2.6682397 *  2.3018298 *  1.4266711 *  2.5247925 *  5.1613113  
  17 C       3.6754483    2.4149224 *  1.3881016 *  4.3352454    4.6979299  
  18 C       3.8917485    3.3799328    2.3385944 *  3.7600139    4.0104224  
  19 C       3.1235863    3.7297596    3.6317384    2.1616017 *  6.0201971  
  20 C       7.4960043    6.2506573    5.6633516    8.3374284    3.9896924  
  21 C       8.1625695    7.0104243    6.3565486    8.8788941    3.3355721  
  22 C       7.6151371    6.6048927    6.0575728    8.2705121    2.2334663 *
  23 C       6.2739788    5.0527522    4.6794148    7.2149200    3.8643152  
  24 C       2.2370768 *  1.3932937 *  2.2811327 *  3.4311085    5.3302124  
  25 C       3.5212796    2.4109285 *  2.6534327 *  4.6162590    4.5620915  
  26 C       4.4943365    3.5976695    3.7537461    5.4683691    3.6986485  
  27 C       5.7586230    4.7237505    4.5638422    6.6732056    3.2014763  
  28 C       6.5720686    5.6509216    5.3368465    7.3003047    2.1649560 *
  29 C       4.1473506    2.8190319 *  2.4431591 *  5.1091674    4.6049227  
  30 C       5.5039341    4.1826261    3.6665591    6.4284764    4.4131359  
  31 C       0.0000000    1.3607164 *  2.4260620 *  1.3534818 *  6.6505112  
  32 C       1.3607164 *  0.0000000    1.3891282 *  2.4351037 *  5.9008922  
  33 C       2.4260620 *  1.3891282 *  0.0000000    2.9608335 *  5.2663509  
  34 C       1.3534818 *  2.4351037 *  2.9608335 *  0.0000000    6.9914524  
  35 C       6.6505112    5.9008922    5.2663509    6.9914524    0.0000000  
  36 C       7.5626714    6.6420121    5.9126908    8.0052796    1.3481677 *
  37 C       5.0319956    4.6615582    4.0785638    5.0143695    2.4209595 *
  38 C       4.2217622    4.4029651    4.5338874    4.1998747    4.1901407  
  39 C       4.8074699    4.5941581    4.4338425    4.9566918    2.8217321 *
  40 C       4.1506146    4.6074562    4.6624702    3.6907890    5.0885736  
  41 C       2.1652678 *  2.1758411 *  3.2259567    3.1975183    5.6391048  
  42 C       3.2753794    3.2146963    3.8733085    3.9919311    4.7132367  
  43 C       4.2127522    3.7110883    4.0067707    4.9840281    3.5898850  
  44 C       5.0681008    4.5858571    4.5180707    5.5611960    2.4145546 *
  45 C       6.0689870    5.3553277    5.0342737    6.5986265    1.3944437 *
  46 C       3.5099321    3.8625647    4.4174481    3.7545200    5.0556910  
  47 C       3.7310106    4.5581433    4.9269601    3.1309610    6.2954706  
  48 C       1.3624288 *  2.2289873 *  3.3944933    2.1629017 *  6.5872896  
  49 C       2.2019698 *  3.3299341    4.2578489    2.1472809 *  7.0092203  
  50 C       3.1639895    3.9836240    4.6715920    3.0494495    6.2461417  
  51 C       2.2861984 *  3.5259715    4.1740058    1.3889342 *  7.4170978  
  52 C       3.2344786    4.2236619    4.5349358    2.2217294 *  6.9352483  

               36 C         37 C         38 C         39 C         40 C     

   1 C       2.2574267 *  5.4323721    7.3680060    6.0705906    8.1927751  
   2 C       1.3447273 *  4.2817261    6.3759235    5.0569515    7.1172630  
   3 C       2.4203283 *  1.3900477 *  3.6617637    2.4439046 *  4.2485763  
   4 C       2.6976105 *  2.4605313 *  4.7251487    3.6499534    5.1349537  
   5 C       2.2552470 *  3.7328017    5.9501536    4.7604176    6.4916106  
   6 C       6.0579111    2.4366632 *  2.2150046 *  2.7221111 *  1.3787913 *
   7 C       4.8319224    1.4185844 *  2.5977696 *  2.3475278 *  2.4264894 *
   8 C       3.2382246    5.7062896    7.6582702    6.4664472    8.3619017  
   9 C       3.9234116    2.6889979 *  4.5494790    3.7970053    4.7603316  
  10 C       3.2093544    4.7842865    6.8371471    5.7295558    7.3751652  
  11 C       3.7101119    5.9272564    7.5621832    6.4614053    8.3578113  
  12 C       4.2947260    3.8681479    5.4412062    4.7121958    5.7815581  
  13 C       3.9023072    4.6702324    6.4257222    5.4962201    6.9241141  
  14 C       4.1471927    5.4450210    6.9307770    5.9917246    7.6153532  
  15 C       7.0604780    3.9852040    3.7598930    4.2699451    3.1735690  
  16 C       5.9993695    3.4366878    3.9657008    4.0053183    3.7457324  
  17 C       5.0604150    4.1642705    5.1137860    4.6426604    5.4899308  
  18 C       4.8537532    2.3422931 *  3.6807449    3.3207350    3.6028996  
  19 C       7.1775653    3.6868685    3.1237836    3.8744167    2.1349547 *
  20 C       3.1746206    5.6660277    7.0672361    5.9312557    8.0379124  
  21 C       2.2208407 *  5.4278965    7.0099387    5.7394098    8.0086388  
  22 C       1.3706379 *  4.4603091    5.9007433    4.6013333    6.9704152  
  23 C       3.5132455    5.1027550    6.1317613    5.1516074    7.1335037  
  24 C       6.0408381    4.4905256    4.0597419    4.1066798    4.6621733  
  25 C       5.0399204    4.3535407    4.4713798    4.0864399    5.2931172  
  26 C       4.1950750    3.9718870    4.0830493    3.4530309    5.1838470  
  27 C       3.2574267    4.3133010    5.0008976    4.0473079    6.1332903  
  28 C       2.1555493 *  3.8917938    4.8687615    3.6826996    6.0430163  
  29 C       4.8128143    4.6180009    5.3426879    4.7689369    6.0228044  
  30 C       4.2331882    5.0937558    6.1616512    5.3365292    6.9589962  
  31 C       7.5626714    5.0319956    4.2217622    4.8074699    4.1506146  
  32 C       6.6420121    4.6615582    4.4029651    4.5941581    4.6074562  
  33 C       5.9126908    4.0785638    4.5338874    4.4338425    4.6624702  
  34 C       8.0052796    5.0143695    4.1998747    4.9566918    3.6907890  
  35 C       1.3481677 *  2.4209595 *  4.1901407    2.8217321 *  5.0885736  
  36 C       0.0000000    3.6679131    5.4987731    4.1362069    6.4032632  
  37 C       3.6679131    0.0000000    2.3955338 *  1.4393639 *  2.8596655 *
  38 C       5.4987731    2.3955338 *  0.0000000    1.3717935 *  1.3700223 *
  39 C       4.1362069    1.4393639 *  1.3717935 *  0.0000000    2.4476059 *
  40 C       6.4032632    2.8596655 *  1.3700223 *  2.4476059 *  0.0000000  
  41 C       6.5539585    4.5166712    3.3503379    3.7811824    3.9622013  
  42 C       5.7387434    3.7137068    2.3447038 *  2.6712305 *  3.3369048  
  43 C       4.4785944    3.3029886    2.7905762 *  2.3625155 *  4.0069307  
  44 C       3.5124406    2.3279549 *  2.4391738 *  1.4070429 *  3.6995277  
  45 C       2.2336811 *  2.7026506 *  3.6682150    2.3983100 *  4.8251712  
  46 C       6.2652102    3.5241040    1.4013275 *  2.4123514 *  2.1766675 *
  47 C       7.5871330    4.1092612    2.2827330 *  3.5728934    1.3550277 *
  48 C       7.5889689    5.0388713    3.6567070    4.4317205    3.7976338  
  49 C       8.1506732    5.1472856    3.3921509    4.4957263    3.1636563  
  50 C       7.4793660    4.3738314    2.2598077 *  3.5259054    2.1454261 *
  51 C       8.5610630    5.3012660    3.9246291    4.9930749    3.2351775  
  52 C       8.1581982    4.6361158    3.3270350    4.4369976    2.2712100 *

               41 C         42 C         43 C         44 C         45 C     

   1 C       7.7134816    7.2144795    5.9428439    5.3518353    4.1363254  
   2 C       7.2264403    6.6037082    5.4069651    4.5722733    3.4022136  
   3 C       5.2963795    4.5339912    3.7273227    2.6570811 *  2.2844725 *
   4 C       5.7380114    5.2834034    4.4941909    3.7395179    3.2536120  
   5 C       6.6769179    6.2397662    5.2371946    4.5239065    3.6615581  
   6 C       4.1518452    3.7989783    4.2719069    3.9353039    4.8409893  
   7 C       4.3477773    3.9137483    3.9238774    3.3690975    3.9498256  
   8 C       7.6150042    7.3560600    6.2073798    5.8267512    4.7999657  
   9 C       5.0060688    4.8746672    4.3809200    4.0104133    3.9288639  
  10 C       6.9481538    6.7470090    5.7590994    5.3415577    4.5176896  
  11 C       6.9664853    6.8466024    5.7119316    5.6346718    4.7320860  
  12 C       5.0231260    5.1583224    4.5925308    4.5694401    4.3897378  
  13 C       5.9970875    6.0324329    5.2040553    5.0994651    4.5598236  
  14 C       6.0203034    6.1072841    5.1656652    5.2888117    4.6785796  
  15 C       3.6177945    4.0721694    4.7632384    5.0217688    5.9072145  
  16 C       3.7004788    4.0749196    4.3510634    4.5259728    5.1421462  
  17 C       3.9095655    4.3417935    4.0110661    4.4141807    4.5595653  
  18 C       4.3426685    4.2753854    4.1840793    3.9181171    4.2893613  
  19 C       4.0797351    4.1577163    4.9252389    4.9307278    5.9180229  
  20 C       6.5171712    6.2242172    4.9597931    4.8931320    3.9139789  
  21 C       7.0856296    6.5402106    5.1843896    4.7536352    3.5267845  
  22 C       6.3668676    5.6121886    4.2279857    3.5920365    2.2849183 *
  23 C       5.1857878    4.9876441    3.8010682    4.0493288    3.3918480  
  24 C       1.3786122 *  2.2928262 *  2.6061222 *  3.7397340    4.5172110  
  25 C       2.4704493 *  2.7999089 *  2.3488736 *  3.3545885    3.7484003  
  26 C       2.9134472 *  2.5371200 *  1.4460882 *  2.3463141 *  2.6161440 *
  27 C       4.3259117    3.8495648    2.5407098 *  2.7989737 *  2.3063395 *
  28 C       5.1241142    4.3172907    2.9087044 *  2.4590693 *  1.3804579 *
  29 C       3.6990956    4.0639556    3.4781995    4.1214995    4.1538582  
  30 C       4.8683242    4.9983028    4.0882122    4.4909198    4.0994191  
  31 C       2.1652678 *  3.2753794    4.2127522    5.0681008    6.0689870  
  32 C       2.1758411 *  3.2146963    3.7110883    4.5858571    5.3553277  
  33 C       3.2259567    3.8733085    4.0067707    4.5180707    5.0342737  
  34 C       3.1975183    3.9919311    4.9840281    5.5611960    6.5986265  
  35 C       5.6391048    4.7132367    3.5898850    2.4145546 *  1.3944437 *
  36 C       6.5539585    5.7387434    4.4785944    3.5124406    2.2336811 *
  37 C       4.5166712    3.7137068    3.3029886    2.3279549 *  2.7026506 *
  38 C       3.3503379    2.3447038 *  2.7905762 *  2.4391738 *  3.6682150  
  39 C       3.7811824    2.6712305 *  2.3625155 *  1.4070429 *  2.3983100 *
  40 C       3.9622013    3.3369048    4.0069307    3.6995277    4.8251712  
  41 C       0.0000000    1.4006558 *  2.4211074 *  3.6000510    4.6932760  
  42 C       1.4006558 *  0.0000000    1.4176496 *  2.4336654 *  3.6729724  
  43 C       2.4211074 *  1.4176496 *  0.0000000    1.4249479 *  2.4067944 *
  44 C       3.6000510    2.4336654 *  1.4249479 *  0.0000000    1.3626677 *
  45 C       4.6932760    3.6729724    2.4067944 *  1.3626677 *  0.0000000  
  46 C       2.3000757 *  1.4121676 *  2.4944069 *  2.8694843 *  4.2258666  
  47 C       3.8128027    3.5182450    4.5679894    4.6269728    5.8718116  
  48 C       1.3738951 *  2.4169267 *  3.6458498    4.6224214    5.7914957  
  49 C       2.4697537 *  2.9655726 *  4.3159908    5.0231243    6.3010502  
  50 C       2.7315133 *  2.5124583 *  3.7863114    4.2101960    5.5450499  
  51 C       3.4798447    4.0261366    5.2336780    5.7486127    6.9428042  
  52 C       4.0943345    4.2211756    5.2877136    5.4635845    6.6292375  

               46 C         47 C         48 C         49 C         50 C     

   1 C       7.9722602    9.2889117    8.7618301    9.5434137    9.1181448  
   2 C       7.1564517    8.2925725    8.1841070    8.8058355    8.2677805  
   3 C       4.6663655    5.4791665    6.0105891    6.3275777    5.6422377  
   4 C       5.5801741    6.2537724    6.3929752    6.8640932    6.4263337  
   5 C       6.7285067    7.6090021    7.4736211    8.0827927    7.6777903  
   6 C       3.0261739    2.2228512 *  3.9564965    3.5785819    3.0065850  
   7 C       3.5572665    3.4846708    4.5099312    4.5082475    3.9774610  
   8 C       8.1713431    9.3644070    8.5697065    9.4359107    9.1954676  
   9 C       5.1913587    5.6660561    5.4726216    6.0039145    5.8174501  
  10 C       7.4222013    8.3667957    7.7524255    8.5314307    8.3235409  
  11 C       7.8443830    9.2283310    7.9908225    8.9962554    8.8742955  
  12 C       5.7910798    6.5187856    5.5909759    6.3950200    6.4350293  
  13 C       6.8031873    7.7487746    6.7404847    7.6238244    7.6005595  
  14 C       7.1063411    8.3653477    6.9321666    7.9751295    8.0016697  
  15 C       3.7873058    3.1150289    3.0161325    3.0216471    3.4004300  
  16 C       4.1591003    4.0969342    3.5833985    3.9986499    4.2297429  
  17 C       5.1244541    5.9800389    4.4550426    5.4265643    5.6741210  
  18 C       4.3038107    4.3950454    4.5272852    4.8474301    4.6850032  
  19 C       3.4192957    2.0974747 *  3.4594576    2.9511165 *  2.8791453 *
  20 C       7.2859408    8.9148664    7.6864130    8.6832838    8.4435044  
  21 C       7.4391742    9.0305503    8.2622407    9.1120879    8.6750581  
  22 C       6.3972828    8.0305669    7.5529037    8.2771558    7.6902096  
  23 C       6.1525186    7.8764244    6.3874646    7.4417268    7.2784811  
  24 C       3.3618172    4.7337242    2.2713044 *  3.5153975    3.8831802  
  25 C       4.0403733    5.6541847    3.5887529    4.7567420    4.8801851  
  26 C       3.7989052    5.7383027    4.2256323    5.1963529    4.9535095  
  27 C       4.9918312    6.8788893    5.6128286    6.5547981    6.2229050  
  28 C       5.1848865    6.9918819    6.3605616    7.0940268    6.5103587  
  29 C       5.1617598    6.5024340    4.5992419    5.7434730    5.9318959  
  30 C       6.1300513    7.5966431    5.8869849    7.0051889    7.0574885  
  31 C       3.5099321    3.7310106    1.3624288 *  2.2019698 *  3.1639895  
  32 C       3.8625647    4.5581433    2.2289873 *  3.3299341    3.9836240  
  33 C       4.4174481    4.9269601    3.3944933    4.2578489    4.6715920  
  34 C       3.7545200    3.1309610    2.1629017 *  2.1472809 *  3.0494495  
  35 C       5.0556910    6.2954706    6.5872896    7.0092203    6.2461417  
  36 C       6.2652102    7.5871330    7.5889689    8.1506732    7.4793660  
  37 C       3.5241040    4.1092612    5.0388713    5.1472856    4.3738314  
  38 C       1.4013275 *  2.2827330 *  3.6567070    3.3921509    2.2598077 *
  39 C       2.4123514 *  3.5728934    4.4317205    4.4957263    3.5259054  
  40 C       2.1766675 *  1.3550277 *  3.7976338    3.1636563    2.1454261 *
  41 C       2.3000757 *  3.8128027    1.3738951 *  2.4697537 *  2.7315133 *
  42 C       1.4121676 *  3.5182450    2.4169267 *  2.9655726 *  2.5124583 *
  43 C       2.4944069 *  4.5679894    3.6458498    4.3159908    3.7863114  
  44 C       2.8694843 *  4.6269728    4.6224214    5.0231243    4.2101960  
  45 C       4.2258666    5.8718116    5.7914957    6.3010502    5.5450499  
  46 C       0.0000000    2.2644788 *  2.5932295 *  2.4246025 *  1.4044736 *
  47 C       2.2644788 *  0.0000000    3.2370665    2.2127456 *  1.3640412 *
  48 C       2.5932295 *  3.2370665    0.0000000    1.3609885 *  2.2508210 *
  49 C       2.4246025 *  2.2127456 *  1.3609885 *  0.0000000    1.3734261 *
  50 C       1.4044736 *  1.3640412 *  2.2508210 *  1.3734261 *  0.0000000  
  51 C       3.3819918    2.2387064 *  2.2768798 *  1.3988633 *  2.2499641 *
  52 C       3.2489886    1.3720226 *  3.1874492    2.1941066 *  2.1996256 *

               51 C         52 C     

   1 C       9.8691888    9.6395492  
   2 C       9.0603865    8.6798476  
   3 C       6.5050258    5.9369874  
   4 C       6.8746161    6.4312502  
   5 C       8.1666277    7.8055315  
   6 C       3.2615500    2.3382367 *
   7 C       4.3299194    3.6302557  
   8 C       9.6480540    9.5270207  
   9 C       5.8716546    5.5870147  
  10 C       8.5990278    8.4228010  
  11 C       9.3248175    9.3843282  
  12 C       6.3499667    6.3525198  
  13 C       7.6831025    7.6839140  
  14 C       8.2279826    8.3856887  
  15 C       2.2934560 *  2.3077503 *
  16 C       3.5935153    3.5920216  
  17 C       5.4949759    5.7639656  
  18 C       4.5717629    4.2081467  
  19 C       2.1810575 *  1.3849544 *
  20 C       9.1984014    9.2532077  
  21 C       9.6239260    9.4960101  
  22 C       8.8560292    8.6353770  
  23 C       8.0431897    8.2139870  
  24 C       4.1799815    4.7933144  
  25 C       5.4120351    5.8435731  
  26 C       6.0195177    6.2371791  
  27 C       7.2972742    7.3987715  
  28 C       7.7968531    7.6602470  
  29 C       6.1358005    6.5092220  
  30 C       7.4308928    7.7022051  
  31 C       2.2861984 *  3.2344786  
  32 C       3.5259715    4.2236619  
  33 C       4.1740058    4.5349358  
  34 C       1.3889342 *  2.2217294 *
  35 C       7.4170978    6.9352483  
  36 C       8.5610630    8.1581982  
  37 C       5.3012660    4.6361158  
  38 C       3.9246291    3.3270350  
  39 C       4.9930749    4.4369976  
  40 C       3.2351775    2.2712100 *
  41 C       3.4798447    4.0943345  
  42 C       4.0261366    4.2211756  
  43 C       5.2336780    5.2877136  
  44 C       5.7486127    5.4635845  
  45 C       6.9428042    6.6292375  
  46 C       3.3819918    3.2489886  
  47 C       2.2387064 *  1.3720226 *
  48 C       2.2768798 *  3.1874492  
  49 C       1.3988633 *  2.1941066 *
  50 C       2.2499641 *  2.1996256 *
  51 C       0.0000000    1.3550630 *
  52 C       1.3550630 *  0.0000000  

  * ... LESS THAN  3.000


 TOTAL NUMBER OF BASIS SET SHELLS             =   52
 NUMBER OF CARTESIAN GAUSSIAN BASIS FUNCTIONS =  208
 NUMBER OF ELECTRONS                          =  208
 CHARGE OF MOLECULE                           =    0
 SPIN MULTIPLICITY                            =    1
 NUMBER OF OCCUPIED ORBITALS (ALPHA)          =  104
 NUMBER OF OCCUPIED ORBITALS (BETA )          =  104
 TOTAL NUMBER OF ATOMS                        =   52
 THE NUCLEAR REPULSION ENERGY IS     6801.2943460096

 THE PARAMETERS USED IN THIS CALCULATION ARE DESCRIBED IN:

  C: (PM3): J. J. P. STEWART, J. COMP. CHEM. 10, 209 (1989).                    

 THERE ARE   52 HEAVY AND    0 LIGHT ATOMS,
 YIELDING A TOTAL OF    132600 MOPAC 2E- INTEGRALS.

     $CONTRL OPTIONS
     ---------------
 SCFTYP=RHF          RUNTYP=OPTIMIZE     EXETYP=RUN     
 MPLEVL=       0     CITYP =NONE         CCTYP =NONE         VBTYP =NONE    
 DFTTYP=NONE         TDDFT =NONE    
 MULT  =       1     ICHARG=       0     NZVAR =       0     COORD =UNIQUE  
 PP    =NONE         RELWFN=NONE         LOCAL =NONE         NUMGRD=       F
 ISPHER=      -1     NOSYM =       0     MAXIT =     200     UNITS =ANGS    
 PLTORB=       F     MOLPLT=       F     AIMPAC=       F     FRIEND=        
 NPRINT=       7     IREST =       0     GEOM  =INPUT   
 NORMF =       0     NORMP =       0     ITOL  =      20     ICUT  =       9
 INTTYP=BEST         GRDTYP=BEST         QMTTOL= 1.0E-06

     $SYSTEM OPTIONS
     ---------------
  REPLICATED MEMORY=    10000000 WORDS (ON EVERY NODE).
 DISTRIBUTED MEMDDI=           0 MILLION WORDS IN AGGREGATE,
 MEMDDI DISTRIBUTED OVER   2 PROCESSORS IS           0 WORDS/PROCESSOR.
 TOTAL MEMORY REQUESTED ON EACH PROCESSOR=    10000000 WORDS.
 TIMLIM=      525600.00 MINUTES, OR     365.0 DAYS.
 PARALL= T  BALTYP=  DLB     KDIAG=    0  COREFL= F
 MXSEQ2=     300 MXSEQ3=     150  mem10=         0  mem22=         0

          ----------------
          PROPERTIES INPUT
          ----------------

     MOMENTS            FIELD           POTENTIAL          DENSITY
 IEMOM =       1   IEFLD =       0   IEPOT =       0   IEDEN =       0
 WHERE =COMASS     WHERE =NUCLEI     WHERE =NUCLEI     WHERE =NUCLEI  
 OUTPUT=BOTH       OUTPUT=BOTH       OUTPUT=BOTH       OUTPUT=BOTH    
 IEMINT=       0   IEFINT=       0                     IEDINT=       0
                                                       MORB  =       0
          EXTRAPOLATION IN EFFECT
          SOSCF IN EFFECT
 ORBITAL PRINTING OPTION: NPREO=     1   208     2     1

     -------------------------------
     INTEGRAL TRANSFORMATION OPTIONS
     -------------------------------
     NWORD  =            0
     CUTTRF = 1.0E-09     MPTRAN =       0
     DIRTRF =       T     AOINTS =DUP     

          ----------------------
          INTEGRAL INPUT OPTIONS
          ----------------------
 NOPK  =       1 NORDER=       0 SCHWRZ=       T

     ------------------------------------------
     THE POINT GROUP IS C1 , NAXIS= 0, ORDER= 1
     ------------------------------------------

     DIMENSIONS OF THE SYMMETRY SUBSPACES ARE
 A   =  208

 ..... DONE SETTING UP THE RUN .....
 CPU     0: STEP CPU TIME=     0.00 TOTAL CPU TIME=          0.0 (      0.0 MIN)
 TOTAL WALL CLOCK TIME=          0.0 SECONDS, CPU UTILIZATION IS     0.00%


          -----------------------------
          STATIONARY POINT LOCATION RUN
          -----------------------------

 OBTAINING INITIAL HESSIAN, HESS=GUESS   
 CARTESIAN COORDINATE OPTIMIZATION USING BADGER'S RULE FORCE CONSTANT GUESS

          PARAMETERS CONTROLLING GEOMETRY SEARCH ARE
          METHOD =QA                  UPHESS =BFGS    
          NNEG   =         0          NFRZ   =         0
          NSTEP  =       100          IFOLOW =         1
          HESS   =GUESS               RESTAR =         F
          IHREP  =         0          HSSEND =         F
          NPRT   =         0          NPUN   =         0
          OPTTOL = 1.000E-03          RMIN   = 1.500E-03
          RMAX   = 1.000E-01          RLIM   = 7.000E-02
          DXMAX  = 3.000E-01          PURIFY =         F
          MOVIE  =         F          TRUPD  =         T
          TRMAX  = 5.000E-01          TRMIN  = 5.000E-02
          ITBMAT =         5          STPT   =         F
          STSTEP = 1.000E-02          PROJCT=          T

 BEGINNING GEOMETRY SEARCH POINT NSERCH=   0 ...

 COORDINATES OF ALL ATOMS ARE (ANGS)
   ATOM   CHARGE       X              Y              Z
 ------------------------------------------------------------
 C           6.0   4.8658000000  -0.6188000000  -0.3958000000
 C           6.0   3.8794000000  -1.4624000000  -0.8768000000
 C           6.0   1.0175000000  -1.9632000000  -0.9418000000
 C           6.0   1.6179000000  -0.9803000000  -1.7967000000
 C           6.0   3.0178000000  -0.7627000000  -1.7282000000
 C           6.0  -2.6266000000  -1.4376000000  -1.4606000000
 C           6.0  -1.2556000000  -1.3270000000  -1.6320000000
 C           6.0   4.7051000000   0.5704000000  -1.0517000000
 C           6.0   0.7011000000   0.0960000000  -2.0314000000
 C           6.0   3.5645000000   0.4971000000  -1.8075000000
 C           6.0   4.3580000000   1.4757000000  -0.0928000000
 C           6.0   1.2649000000   1.3588000000  -1.6643000000
 C           6.0   2.6403000000   1.4653000000  -1.5035000000
 C           6.0   3.1783000000   2.0766000000  -0.3876000000
 C           6.0  -3.0171000000   0.7896000000  -1.7006000000
 C           6.0  -1.6158000000   0.9992000000  -1.7925000000
 C           6.0   0.3718000000   2.0587000000  -0.8131000000
 C           6.0  -0.6961000000  -0.0756000000  -2.0228000000
 C           6.0  -3.5663000000  -0.4750000000  -1.7286000000
 C           6.0   4.1469000000   0.8303000000   1.0870000000
 C           6.0   4.5359000000  -0.4768000000   0.9473000000
 C           6.0   3.5397000000  -1.3512000000   1.2559000000
 C           6.0   2.8545000000   1.1534000000   1.5512000000
 C           6.0  -1.3064000000   1.8211000000   1.2968000000
 C           6.0   0.0430000000   1.6650000000   1.4574000000
 C           6.0   0.5206000000   0.4986000000   2.1321000000
 C           6.0   1.9164000000   0.2341000000   2.0784000000
 C           6.0   2.3270000000  -1.0901000000   1.8558000000
 C           6.0   0.9368000000   2.1967000000   0.5065000000
 C           6.0   2.2897000000   2.0644000000   0.6449000000
 C           6.0  -3.1874000000   2.0264000000   0.1034000000
 C           6.0  -1.8516000000   2.2856000000   0.1017000000
 C           6.0  -1.0066000000   1.9836000000  -0.9587000000
 C           6.0  -3.9248000000   1.4870000000  -0.8952000000
 C           6.0   1.8663000000  -2.2967000000   0.1183000000
 C           6.0   3.1896000000  -2.0390000000   0.1232000000
 C           6.0  -0.3623000000  -2.0403000000  -0.7920000000
 C           6.0  -2.2851000000  -2.0632000000   0.6366000000
 C           6.0  -0.9242000000  -2.1941000000   0.5242000000
 C           6.0  -3.1929000000  -2.0949000000  -0.3890000000
 C           6.0  -2.3225000000   1.0636000000   1.8393000000
 C           6.0  -1.9024000000  -0.2516000000   2.0751000000
 C           6.0  -0.5107000000  -0.5151000000   2.1340000000
 C           6.0  -0.0291000000  -1.6887000000   1.4850000000
 C           6.0   1.3129000000  -1.8591000000   1.3211000000
 C           6.0  -2.8481000000  -1.1561000000   1.5443000000
 C           6.0  -4.3757000000  -1.5050000000  -0.0905000000
 C           6.0  -3.5222000000   1.3274000000   1.2239000000
 C           6.0  -4.5268000000   0.4693000000   0.8972000000
 C           6.0  -4.1309000000  -0.8342000000   1.0717000000
 C           6.0  -4.9229000000   0.6385000000  -0.4337000000
 C           6.0  -4.7533000000  -0.5706000000  -1.0215000000

          ********************
          1 ELECTRON INTEGRALS
          ********************

          **************************
          1 AND 2 ELECTRON INTEGRALS
          **************************

 MOPAC ONE- AND TWO-ELECTRON INTEGRALS REQUIRE    176072 WORDS.
 ...... END OF ONE- AND TWO-ELECTRON INTEGRALS......
 CPU     0: STEP CPU TIME=     0.02 TOTAL CPU TIME=          0.0 (      0.0 MIN)
 TOTAL WALL CLOCK TIME=          0.0 SECONDS, CPU UTILIZATION IS    50.40%
 ...... END OF ONE-ELECTRON INTEGRALS ......
 CPU     0: STEP CPU TIME=     0.00 TOTAL CPU TIME=          0.0 (      0.0 MIN)
 TOTAL WALL CLOCK TIME=          0.0 SECONDS, CPU UTILIZATION IS    50.40%

          -------------
          GUESS OPTIONS
          -------------
          GUESS =HUCKEL            NORB  =       0          NORDER=       0
          MIX   =       F          PRTMO =       F          PUNMO =       F
          TOLZ  = 1.0E-08          TOLE  = 1.0E-05
          SYMDEN=       F          PURIFY=       F

 INITIAL GUESS ORBITALS GENERATED BY HUCKEL   ROUTINE.

 SYMMETRIES FOR INITIAL GUESS ORBITALS FOLLOW.   BOTH SET(S).
   104 ORBITALS ARE OCCUPIED (    0 CORE ORBITALS).
     1=A        2=A        3=A        4=A        5=A        6=A        7=A   
     8=A        9=A       10=A       11=A       12=A       13=A       14=A   
    15=A       16=A       17=A       18=A       19=A       20=A       21=A   
    22=A       23=A       24=A       25=A       26=A       27=A       28=A   
    29=A       30=A       31=A       32=A       33=A       34=A       35=A   
    36=A       37=A       38=A       39=A       40=A       41=A       42=A   
    43=A       44=A       45=A       46=A       47=A       48=A       49=A   
    50=A       51=A       52=A       53=A       54=A       55=A       56=A   
    57=A       58=A       59=A       60=A       61=A       62=A       63=A   
    64=A       65=A       66=A       67=A       68=A       69=A       70=A   
    71=A       72=A       73=A       74=A       75=A       76=A       77=A   
    78=A       79=A       80=A       81=A       82=A       83=A       84=A   
    85=A       86=A       87=A       88=A       89=A       90=A       91=A   
    92=A       93=A       94=A       95=A       96=A       97=A       98=A   
    99=A      100=A      101=A      102=A      103=A      104=A      105=A   
   106=A      107=A      108=A      109=A      110=A      111=A      112=A   
   113=A      114=A   
 ...... END OF INITIAL ORBITAL SELECTION ......
 CPU     0: STEP CPU TIME=     0.00 TOTAL CPU TIME=          0.0 (      0.0 MIN)
 TOTAL WALL CLOCK TIME=          0.0 SECONDS, CPU UTILIZATION IS    33.97%

          --------------------------
               R-PM3 SCF CALCULATION
          --------------------------

     NUCLEAR ENERGY =      2758.8950488378
     MAXIT =  200     NPUNCH=    2
     EXTRAP=T  DAMP=F  SHIFT=F  RSTRCT=F  DIIS=F  DEM=F  SOSCF=T
     DENSITY MATRIX CONV=  2.00E-05
     SOSCF WILL OPTIMIZE   10816 ORBITAL ROTATIONS, SOGTOL=   0.250
     MEMORY REQUIRED FOR RHF ITERS=    482456 WORDS.

                                                                                   NONZERO     BLOCKS
 ITER EX DEM     TOTAL ENERGY        E CHANGE  DENSITY CHANGE     ORB. GRAD      INTEGRALS    SKIPPED
   1  0  0     -222.7035673181  -222.7035673181   0.180813450   0.000000000              0          0
          ---------------START SECOND ORDER SCF---------------
   2  1  0     -224.2373151568    -1.5337478388   0.122601340   0.015783678              0          0
   3  2  0     -224.3662340248    -0.1289188680   0.050531412   0.014673158              0          0
   4  3  0     -224.4009178594    -0.0346838346   0.012769654   0.003474688              0          0
   5  4  0     -224.4044668172    -0.0035489578   0.011726509   0.001584587              0          0
   6  5  0     -224.4052197349    -0.0007529177   0.008998626   0.001219619              0          0
   7  6  0     -224.4056369990    -0.0004172642   0.012102029   0.000554855              0          0
   8  7  0     -224.4058504375    -0.0002134385   0.005817091   0.000503444              0          0
   9  8  0     -224.4059188969    -0.0000684593   0.010088314   0.000388322              0          0
  10  9  0     -224.4060056416    -0.0000867447   0.008093717   0.000335540              0          0
  11 10  0     -224.4060553876    -0.0000497460   0.011774939   0.000313892              0          0
  12 11  0     -224.4061115716    -0.0000561840   0.011705568   0.000244951              0          0
  13 12  0     -224.4061590616    -0.0000474900   0.012867805   0.000267776              0          0
  14 13  0     -224.4062062077    -0.0000471461   0.012285307   0.000290016              0          0
  15 14  0     -224.4062512498    -0.0000450421   0.013371506   0.000293894              0          0
  16 15  0     -224.4063020899    -0.0000508402   0.014338221   0.000312318              0          0
  17 16  0     -224.4063602901    -0.0000582001   0.015665512   0.000350439              0          0
  18 17  0     -224.4064302597    -0.0000699696   0.017567259   0.000387918              0          0
  19 18  0     -224.4065150137    -0.0000847540   0.020427480   0.000462050              0          0
  20 19  0     -224.4066198062    -0.0001047925   0.024032081   0.000422272              0          0
  21 20  0     -224.4067446037    -0.0001247975   0.025319980   0.000339474              0          0
  22 21  0     -224.4068749683    -0.0001303646   0.021437157   0.000370181              0          0
  23 22  0     -224.4069906165    -0.0001156481   0.049207417   0.000537861              0          0
  24 23  0     -224.4069232934     0.0000673230   0.031414569   0.000734426              0          0
  25 24  0     -224.4071677884    -0.0002444950   0.015112032   0.000491496              0          0
  26 25  0     -224.4072724179    -0.0001046295   0.110313777   0.000516455              0          0
  27 26  0     -224.4074133598    -0.0001409419   0.049395010   0.001107453              0          0
  28 27  0     -224.4077108944    -0.0002975345   0.029030104   0.000627974              0          0
  29 28  0     -224.4079489509    -0.0002380565   0.158214748   0.000377624              0          0
  30 29  0     -224.4060876526     0.0018612982   0.135743548   0.002382242              0          0
  31 30  0     -224.4081814960    -0.0020938433   0.023137223   0.000996785              0          0
  32 31  0     -224.4083515944    -0.0001700985   0.028310478   0.000297689              0          0
  33 32  0     -224.4084430209    -0.0000914265   0.006612383   0.000521417              0          0
  34 33  0     -224.4084735804    -0.0000305595   0.006817027   0.000301624              0          0
  35 34  0     -224.4085041250    -0.0000305446   0.002827608   0.000175441              0          0
  36 35  0     -224.4085124825    -0.0000083574   0.002939735   0.000137157              0          0
  37 36  0     -224.4085188090    -0.0000063266   0.000942096   0.000084486              0          0
  38 37  0     -224.4085213687    -0.0000025597   0.000857967   0.000073742              0          0
  39 38  0     -224.4085228724    -0.0000015037   0.000417584   0.000046016              0          0
  40 39  0     -224.4085233568    -0.0000004844   0.000259813   0.000016294              0          0
  41 40  0     -224.4085235584    -0.0000002015   0.000152861   0.000012663              0          0
  42 41  0     -224.4085236392    -0.0000000809   0.000124036   0.000008443              0          0
  43 42  0     -224.4085236721    -0.0000000328   0.000059778   0.000004833              0          0
  44 43  0     -224.4085236842    -0.0000000121   0.000036878   0.000003295              0          0
  45 44  0     -224.4085236896    -0.0000000054   0.000031192   0.000002541              0          0
  46 45  0     -224.4085236921    -0.0000000025   0.000023597   0.000001769              0          0

          ----------------
          ENERGY CONVERGED
          ----------------
     TIME TO FORM FOCK OPERATORS=       0.0 SECONDS (       0.0 SEC/ITER)
     FOCK TIME ON FIRST ITERATION=       0.0, LAST ITERATION=       0.0
     TIME TO SOLVE SCF EQUATIONS=       0.2 SECONDS (       0.0 SEC/ITER)

 FINAL R-PM3 ENERGY IS     -224.4085236921 AFTER  46 ITERATIONS

 HEAT OF FORMATION IS      1447.47017 KCAL/MOL
 

          ------------
          EIGENVECTORS
          ------------

                      1          2          3          4          5
                   -1.9504    -1.9113    -1.6801    -1.6754    -1.6087
                     A          A          A          A          A   
    1  C  1  S    0.166139  -0.194596  -0.027087  -0.155899  -0.092402
    2  C  1  X   -0.053554   0.061311  -0.003137   0.042908   0.028766
    3  C  1  Y    0.021896  -0.026790  -0.042204  -0.024208   0.015179
    4  C  1  Z    0.008329  -0.009601   0.010967  -0.002155  -0.032732
    5  C  2  S    0.160806  -0.179050   0.066417  -0.115174  -0.088888
    6  C  2  X   -0.015475   0.012375  -0.035068  -0.009637  -0.002573
    7  C  2  Y    0.039143  -0.046107  -0.024098  -0.039335   0.000984
    8  C  2  Z    0.026454  -0.029815   0.030236  -0.015177  -0.053361
    9  C  3  S    0.104785  -0.049551   0.218334   0.073606   0.100322
   10  C  3  X    0.005895  -0.023065  -0.004168  -0.014319  -0.040297
   11  C  3  Y    0.015656  -0.008487   0.011125   0.009160   0.030923
   12  C  3  Z    0.012910  -0.007383   0.047688   0.014351  -0.027669
   13  C  4  S    0.108779  -0.076522   0.092431   0.038175   0.155829
   14  C  4  X    0.007249  -0.022248  -0.016145  -0.029207  -0.036183
   15  C  4  Y    0.008940  -0.007383  -0.033015   0.004437   0.038619
   16  C  4  Z    0.020104  -0.015032   0.034008   0.006935   0.003886
   17  C  5  S    0.147088  -0.152996   0.016365  -0.070861   0.062132
   18  C  5  X    0.010735  -0.020675  -0.022884  -0.038492  -0.035917
   19  C  5  Y    0.017322  -0.019830  -0.044208  -0.012178   0.037329
   20  C  5  Z    0.034388  -0.037675   0.014847  -0.021435  -0.017732
   21  C  6  S    0.142437   0.145965   0.107570  -0.104046   0.196771
   22  C  6  X   -0.014164  -0.026913   0.016757   0.049278   0.024879
   23  C  6  Y    0.020017   0.022114  -0.012086  -0.010396   0.014189
   24  C  6  Z    0.028726   0.031059   0.030438  -0.026724   0.022742
   25  C  7  S    0.106077   0.066014   0.133644   0.025222   0.242156
   26  C  7  X   -0.007453  -0.024381   0.010337   0.033792   0.006299
   27  C  7  Y    0.010471   0.006834  -0.014886   0.010691   0.026191
   28  C  7  Z    0.017706   0.011447   0.036364   0.002744   0.026378
   29  C  8  S    0.167380  -0.195891  -0.123341  -0.151860   0.015276
   30  C  8  X   -0.048668   0.055248   0.039746   0.034105  -0.023883
   31  C  8  Y   -0.013528   0.016341  -0.020699   0.020554   0.026992
   32  C  8  Z    0.031875  -0.038045  -0.020610  -0.029084  -0.020262
   33  C  9  S    0.097185  -0.033037   0.013943   0.099321   0.250901
   34  C  9  X    0.004457  -0.022817  -0.008831  -0.015518  -0.010173
   35  C  9  Y    0.000390  -0.000589  -0.040821   0.013351   0.006284
   36  C  9  Z    0.016829  -0.006653   0.002519   0.018983   0.032718
   37  C 10  S    0.161487  -0.178603  -0.114719  -0.103109   0.107860
   38  C 10  X   -0.003508  -0.002126  -0.000922  -0.024432  -0.040228
   39  C 10  Y   -0.007260   0.008410  -0.031517   0.014065   0.022522
   40  C 10  Z    0.048470  -0.055510  -0.037425  -0.035920   0.012417
   41  C 11  S    0.169224  -0.194371  -0.169818  -0.110696   0.034305
   42  C 11  X   -0.036454   0.038915   0.046251   0.003017  -0.028638
   43  C 11  Y   -0.041698   0.049709   0.019030   0.043127   0.018926
   44  C 11  Z   -0.005293   0.006704   0.012726   0.013282  -0.025934
   45  C 12  S    0.106164  -0.062844  -0.097603   0.112534   0.235009
   46  C 12  X    0.007850  -0.024305  -0.014001  -0.032857  -0.004542
   47  C 12  Y   -0.010925   0.006838  -0.014465   0.001131  -0.029362
   48  C 12  Z    0.017982  -0.010930  -0.026389   0.027246   0.024457
   49  C 13  S    0.142676  -0.140921  -0.157414  -0.002717   0.192122
   50  C 13  X    0.013933  -0.025801  -0.017296  -0.047644  -0.023506
   51  C 13  Y   -0.021679   0.023099   0.002339   0.015861  -0.019432
   52  C 13  Z    0.028773  -0.029946  -0.040168   0.000936   0.019604
   53  C 14  S    0.152570  -0.160597  -0.194250  -0.016514   0.126014
   54  C 14  X    0.000975  -0.009154   0.004340  -0.041277  -0.026807
   55  C 14  Y   -0.046209   0.051148   0.047514   0.021071  -0.025717
   56  C 14  Z    0.006711  -0.006655  -0.005808   0.009964  -0.020155
   57  C 15  S    0.145268   0.156841  -0.069100  -0.034719   0.042227
   58  C 15  X   -0.010455  -0.021098   0.007139   0.046172   0.038225
   59  C 15  Y   -0.016376  -0.019449  -0.023039   0.037432  -0.037118
   60  C 15  Z    0.033742   0.038398  -0.025535  -0.005579  -0.021888
   61  C 16  S    0.108449   0.079801  -0.056745   0.100287   0.143693
   62  C 16  X   -0.006484  -0.021959   0.005324   0.033500   0.038377
   63  C 16  Y   -0.008476  -0.007322  -0.025693   0.018427  -0.039358
   64  C 16  Z    0.020392   0.016091  -0.021871   0.029107   0.001272
   65  C 17  S    0.098863  -0.016616  -0.124590   0.204708   0.164164
   66  C 17  X    0.002276  -0.023658  -0.004361  -0.019719   0.021250
   67  C 17  Y   -0.016072   0.003745   0.009437  -0.024195  -0.037978
   68  C 17  Z    0.008266  -0.000784  -0.015994   0.031216  -0.020778
   69  C 18  S    0.097077   0.035887   0.037746   0.092216   0.249598
   70  C 18  X   -0.004176  -0.022814   0.002713   0.016747   0.012032
   71  C 18  Y   -0.000025  -0.000471  -0.039106   0.018563  -0.009251
   72  C 18  Z    0.016921   0.007418   0.008665   0.016915   0.032921
   73  C 19  S    0.162398   0.186582   0.008509  -0.153445   0.095316
   74  C 19  X    0.002608  -0.003366   0.014259   0.022328   0.041960
   75  C 19  Y    0.007017   0.008494  -0.034919   0.012269  -0.029494
   76  C 19  Z    0.045696   0.054377   0.003034  -0.049604   0.008144
   77  C 20  S    0.160919  -0.181847  -0.093916  -0.080429  -0.061341
   78  C 20  X   -0.020952   0.019772   0.011266  -0.016578   0.000592
   79  C 20  Y   -0.016916   0.020089  -0.028210   0.019533   0.044485
   80  C 20  Z   -0.041096   0.048707   0.041557   0.038212  -0.006682
   81  C 21  S    0.159838  -0.183563   0.006906  -0.113696  -0.146909
   82  C 21  X   -0.036352   0.039189  -0.019894   0.009352   0.041311
   83  C 21  Y    0.011366  -0.014127  -0.042019  -0.010240   0.018242
   84  C 21  Z   -0.036552   0.043772   0.011603   0.041615   0.015271
   85  C 22  S    0.151026  -0.159569   0.147497  -0.036521  -0.202912
   86  C 22  X   -0.012083   0.005713  -0.054000  -0.032522   0.023433
   87  C 22  Y    0.021546  -0.025025  -0.017095  -0.012401  -0.016358
   88  C 22  Z   -0.035573   0.040167  -0.025432   0.027955   0.034364
[...]
    3  C  1  Y   -0.059946  -0.052194   0.014976  -0.004494
    4  C  1  Z    0.010248   0.011969   0.001501   0.046296
    5  C  2  S   -0.021359  -0.024346   0.034718   0.009211
    6  C  2  X   -0.045430  -0.043703   0.010018  -0.002352
    7  C  2  Y    0.044798   0.056920  -0.056596  -0.055464
    8  C  2  Z    0.030588   0.070287  -0.012077  -0.038351
    9  C  3  S   -0.010160  -0.036602   0.027503   0.004637
   10  C  3  X   -0.015979  -0.008027   0.004913   0.001655
   11  C  3  Y   -0.052772   0.118801  -0.224741  -0.022786
   12  C  3  Z   -0.034731   0.067948  -0.174082  -0.037962
   13  C  4  S    0.013784  -0.009194  -0.018010  -0.012442
   14  C  4  X   -0.011070  -0.042580   0.004667   0.007289
   15  C  4  Y   -0.099642   0.016536   0.038622   0.038756
   16  C  4  Z   -0.199908   0.068085   0.021710   0.067458
   17  C  5  S    0.003505   0.050513  -0.005626  -0.010963
   18  C  5  X   -0.008812   0.039021  -0.013428  -0.017548
   19  C  5  Y    0.058124  -0.075929  -0.012697   0.012861
   20  C  5  Z    0.128334  -0.150754  -0.061245   0.039588
   21  C  6  S    0.049489  -0.006186  -0.001464   0.023281
   22  C  6  X   -0.013179  -0.008769   0.012301  -0.008106
   23  C  6  Y   -0.100558   0.094639   0.059630  -0.118058
   24  C  6  Z   -0.077571   0.097979   0.045236  -0.127918
   25  C  7  S   -0.001039   0.012151  -0.006650  -0.004696
   26  C  7  X    0.041543   0.017810  -0.011972  -0.002547
   27  C  7  Y   -0.009554  -0.096067  -0.010161   0.067098
   28  C  7  Z    0.001042  -0.171853  -0.010896   0.106206
   29  C  8  S    0.020147   0.077381  -0.015524   0.002700
   30  C  8  X    0.066857   0.127563  -0.035613   0.013775
   31  C  8  Y    0.053536   0.065934  -0.022359   0.029116
   32  C  8  Z   -0.052592  -0.085101   0.007512   0.007490
   33  C  9  S   -0.004432  -0.006360  -0.009306   0.002562
   34  C  9  X   -0.002668  -0.015045   0.005287   0.008446
   35  C  9  Y    0.022834  -0.016881  -0.005853  -0.013854
   36  C  9  Z    0.124484  -0.015885   0.248608  -0.085298
   37  C 10  S   -0.019573  -0.035834   0.010181   0.023075
   38  C 10  X   -0.020741  -0.061483  -0.008994   0.016288
   39  C 10  Y   -0.023567   0.018841   0.006329   0.005301
   40  C 10  Z    0.037680   0.033014   0.042271  -0.075118
   41  C 11  S   -0.031874  -0.096704   0.022223  -0.058528
   42  C 11  X   -0.075829  -0.120710   0.053584  -0.061332
   43  C 11  Y   -0.066666  -0.114124   0.041408  -0.039749
   44  C 11  Z    0.000240   0.003052   0.012747  -0.045744
   45  C 12  S   -0.036219   0.031764   0.012689   0.015860
   46  C 12  X    0.022753   0.004327  -0.000555   0.000450
   47  C 12  Y   -0.107124   0.102421   0.016896   0.038562
   48  C 12  Z    0.093277  -0.206624  -0.044398  -0.030341
   49  C 13  S    0.021986  -0.065970  -0.026965  -0.025696
   50  C 13  X    0.012682  -0.020587   0.001251  -0.015549
   51  C 13  Y    0.101084  -0.193456  -0.033441  -0.019272
   52  C 13  Z   -0.152988   0.164415   0.024715   0.046054
   53  C 14  S    0.035495   0.076936   0.015423   0.013256
   54  C 14  X    0.014605   0.029130  -0.008104   0.013186
   55  C 14  Y    0.058733   0.049020   0.047121  -0.072813
   56  C 14  Z    0.025095  -0.031845  -0.010561   0.002619
   57  C 15  S   -0.051677   0.023016   0.018136  -0.007175
   58  C 15  X    0.047232  -0.016510  -0.026129   0.013287
   59  C 15  Y   -0.112704   0.033973   0.014023  -0.063372
   60  C 15  Z    0.184413  -0.142048  -0.020399   0.144470
   61  C 16  S    0.021990  -0.018855   0.002881   0.019203
   62  C 16  X   -0.015574   0.009573   0.012259   0.005385
   63  C 16  Y    0.027596  -0.071280   0.018109   0.062914
   64  C 16  Z   -0.144422   0.087855   0.011579  -0.123195
   65  C 17  S    0.025657   0.029799   0.018325  -0.009485
   66  C 17  X    0.024818   0.016683   0.001346  -0.008280
   67  C 17  Y    0.054159   0.088249   0.263914  -0.085235
   68  C 17  Z    0.004321   0.006882  -0.087557   0.032902
   69  C 18  S   -0.006636  -0.010699   0.011324  -0.002607
   70  C 18  X    0.006363   0.005038   0.008472   0.004976
   71  C 18  Y    0.006800   0.027031  -0.011959  -0.006469
   72  C 18  Z    0.012693   0.151387  -0.233140   0.052727
   73  C 19  S   -0.020227  -0.041410  -0.031802  -0.001537
   74  C 19  X    0.021247   0.042342   0.029446  -0.004854
   75  C 19  Y    0.033044  -0.007006  -0.004606   0.030568
   76  C 19  Z    0.001072   0.029661  -0.027409   0.035827
   77  C 20  S    0.002730   0.059676  -0.025024   0.130615
   78  C 20  X   -0.016462   0.021635  -0.042574   0.162334
   79  C 20  Y   -0.052113   0.002479  -0.047616   0.060445
   80  C 20  Z   -0.076655  -0.046675  -0.046422   0.156378
   81  C 21  S   -0.052577  -0.052445  -0.010046  -0.126808
   82  C 21  X   -0.130789  -0.056457  -0.018876  -0.195104
   83  C 21  Y    0.057016   0.012538   0.029884   0.006069
   84  C 21  Z   -0.074868  -0.046934  -0.024535  -0.142906
   85  C 22  S    0.050369   0.035693   0.049422   0.051066
   86  C 22  X    0.073602   0.057503   0.035891   0.085851
   87  C 22  Y   -0.073149  -0.057715  -0.079699  -0.037457
   88  C 22  Z    0.103313   0.047354   0.051632   0.019413
   89  C 23  S    0.062062   0.007149   0.032820  -0.046356
   90  C 23  X    0.019326  -0.003271   0.020478  -0.072045
   91  C 23  Y    0.148388   0.049658   0.042475  -0.054109
   92  C 23  Z    0.202525   0.113919   0.060768  -0.020537
   93  C 24  S    0.025151   0.033092   0.048277  -0.021704
   94  C 24  X   -0.025776  -0.003337   0.000111   0.027213
   95  C 24  Y   -0.009347   0.039352   0.225733  -0.050084
   96  C 24  Z   -0.044636   0.013924   0.162697  -0.062852
   97  C 25  S    0.075966   0.021071  -0.020996  -0.026968
   98  C 25  X    0.079216   0.031247  -0.004884  -0.017334
   99  C 25  Y    0.180145   0.055485  -0.176720  -0.011811
  100  C 25  Z    0.185322   0.049063  -0.165542  -0.018625
  101  C 26  S   -0.058561  -0.017198  -0.006815   0.032638
  102  C 26  X    0.019701   0.025012  -0.000747   0.002265
  103  C 26  Y   -0.085728   0.009079  -0.008135   0.060426
  104  C 26  Z   -0.185165   0.115291  -0.095305   0.171220
  105  C 27  S   -0.028080  -0.032409  -0.010384  -0.042604
  106  C 27  X   -0.035362  -0.028675  -0.002757  -0.023620
  107  C 27  Y   -0.021917  -0.035594  -0.014160  -0.002924
  108  C 27  Z   -0.034911  -0.245121   0.038662  -0.282106
  109  C 28  S    0.006325   0.014548  -0.012605   0.042058
  110  C 28  X   -0.034254  -0.013702  -0.027006  -0.007389
  111  C 28  Y    0.006343   0.008487   0.006634  -0.044421
  112  C 28  Z    0.022355   0.047304   0.002603   0.197342
  113  C 29  S   -0.036399  -0.036870  -0.016850  -0.000094
  114  C 29  X    0.063432   0.023577   0.012345  -0.031615
  115  C 29  Y   -0.093612  -0.309739  -0.056323  -0.016624
  116  C 29  Z   -0.032796  -0.055646   0.007270  -0.000762
  117  C 30  S   -0.058808  -0.007702  -0.008792   0.030277
  118  C 30  X   -0.020417  -0.011034  -0.025338   0.011570
  119  C 30  Y   -0.121761   0.167521  -0.041959   0.112559
  120  C 30  Z   -0.084164   0.082127  -0.023352   0.058173
  121  C 31  S    0.015341  -0.047697   0.025741   0.022725
  122  C 31  X   -0.026215   0.042084  -0.022141  -0.013428
  123  C 31  Y    0.159641  -0.055291   0.065726   0.050646
  124  C 31  Z    0.009770  -0.033525  -0.000733   0.010948
  125  C 32  S   -0.069449  -0.010644  -0.019981   0.005135
  126  C 32  X   -0.016213  -0.035766  -0.009246   0.015008
  127  C 32  Y   -0.303603  -0.057660  -0.014676  -0.098289
  128  C 32  Z    0.008026  -0.005997  -0.023836   0.017142
  129  C 33  S    0.044362   0.005630  -0.015655  -0.008417
  130  C 33  X   -0.016613  -0.020990  -0.012188   0.003250
  131  C 33  Y    0.157492   0.070124  -0.215195   0.070949
  132  C 33  Z   -0.057185  -0.046828   0.144318  -0.035467
  133  C 34  S    0.046092   0.034912  -0.023534  -0.035217
  134  C 34  X   -0.051309  -0.028566   0.016166   0.015635
  135  C 34  Y    0.028749   0.010826  -0.059835   0.039809
  136  C 34  Z   -0.062549   0.015372   0.025623  -0.045342
  137  C 35  S    0.021273   0.032407   0.024371   0.015484
  138  C 35  X   -0.017704   0.003349   0.014254   0.018139
  139  C 35  Y    0.059352  -0.084228  -0.047493   0.007096
  140  C 35  Z    0.005205  -0.016478   0.016789   0.013484
  141  C 36  S    0.000517  -0.028484  -0.060869  -0.040014
  142  C 36  X    0.013073  -0.031295  -0.051554  -0.037286
  143  C 36  Y   -0.054667   0.083269   0.114513   0.040288
  144  C 36  Z   -0.016289  -0.026240  -0.015590  -0.006674
  145  C 37  S   -0.038895   0.009024  -0.015621  -0.009825
  146  C 37  X    0.029326  -0.001010   0.001411   0.008384
  147  C 37  Y    0.142804  -0.112417   0.213324  -0.010876
  148  C 37  Z    0.051257  -0.043510   0.096493  -0.016972
  149  C 38  S   -0.005273   0.011692   0.030421   0.030043
  150  C 38  X   -0.013361   0.005088  -0.016458  -0.014797
  151  C 38  Y    0.079462  -0.099837  -0.187386   0.008734
  152  C 38  Z   -0.052081   0.039279   0.098085  -0.004697
  153  C 39  S    0.044874  -0.002901  -0.006264   0.004294
  154  C 39  X    0.025032  -0.005494   0.009480   0.031166
  155  C 39  Y   -0.117430   0.133107   0.175784  -0.076104
  156  C 39  Z    0.007975  -0.019618  -0.037779   0.018893
  157  C 40  S   -0.049343   0.007080   0.039029  -0.007746
  158  C 40  X    0.025708   0.005173  -0.044157  -0.027848
  159  C 40  Y    0.159497   0.032364  -0.035802   0.038357
  160  C 40  Z    0.050118  -0.006130  -0.017990   0.029246
  161  C 41  S   -0.043234  -0.050397   0.014009   0.070196
  162  C 41  X   -0.004370   0.024926  -0.024960  -0.019750
  163  C 41  Y   -0.046002  -0.065148  -0.009138   0.081408
  164  C 41  Z   -0.078949  -0.109372   0.045465   0.264444
  165  C 42  S    0.022040   0.007244  -0.011947  -0.041025
  166  C 42  X   -0.001271   0.001174   0.009604   0.016759
  167  C 42  Y    0.019367   0.047002   0.013618  -0.040763
  168  C 42  Z    0.028581  -0.066234  -0.260199  -0.196276
  169  C 43  S    0.031382   0.020405   0.023099   0.021820
  170  C 43  X    0.033135   0.015033  -0.008671  -0.004316
  171  C 43  Y    0.011359  -0.019248  -0.061397  -0.047395
  172  C 43  Z    0.024207   0.075120   0.245939   0.056172
  173  C 44  S   -0.013417  -0.027118  -0.014646  -0.030630
  174  C 44  X    0.000401   0.018125   0.011243   0.024650
  175  C 44  Y   -0.100724   0.113817  -0.066558   0.084085
  176  C 44  Z    0.096006  -0.127699   0.055061  -0.094873
  177  C 45  S   -0.039027   0.010604  -0.009103  -0.005110
  178  C 45  X   -0.002895  -0.019134  -0.010892  -0.022041
  179  C 45  Y    0.107662  -0.122627   0.100775  -0.032821
  180  C 45  Z   -0.089947   0.091800  -0.089549  -0.002793
  181  C 46  S    0.002137   0.022881  -0.045042  -0.066806
  182  C 46  X   -0.014968  -0.046457   0.027172   0.100769
  183  C 46  Y   -0.028836  -0.061922   0.028437   0.078274
  184  C 46  Z    0.029412   0.115585  -0.003280  -0.084252
  185  C 47  S    0.026499  -0.014132  -0.098559  -0.056062
  186  C 47  X   -0.047312  -0.005685   0.115553   0.061829
  187  C 47  Y   -0.100178  -0.034013   0.088742   0.038515
  188  C 47  Z    0.011416   0.031941  -0.013352  -0.059770
  189  C 48  S    0.017585   0.061156  -0.009195   0.005421
  190  C 48  X   -0.045506  -0.081254  -0.028508  -0.044279
  191  C 48  Y    0.062052   0.143723  -0.015311  -0.058416
  192  C 48  Z    0.089257   0.131084   0.001178  -0.043124
  193  C 49  S    0.015610   0.007469  -0.040316  -0.137538
  194  C 49  X    0.057349   0.007238   0.053270   0.219331
  195  C 49  Y   -0.027639  -0.040133   0.017664   0.010098
  196  C 49  Z   -0.089000  -0.062154  -0.060666  -0.118937
  197  C 50  S   -0.019911  -0.026344   0.086749   0.152786
  198  C 50  X   -0.009091   0.061772  -0.091416  -0.212445
  199  C 50  Y    0.007585   0.051397  -0.069795  -0.095493
  200  C 50  Z    0.023255  -0.095323   0.061788   0.231041
  201  C 51  S   -0.057003  -0.060287  -0.017619   0.088303
  202  C 51  X    0.138758   0.134596   0.063673  -0.117702
  203  C 51  Y   -0.056666  -0.034075   0.004632   0.040407
  204  C 51  Z    0.041258   0.022232   0.029743   0.043624
  205  C 52  S    0.039681   0.064266   0.073875  -0.016337
  206  C 52  X   -0.117678  -0.127167  -0.103876   0.054091
  207  C 52  Y   -0.008925  -0.015650  -0.054822  -0.033151
  208  C 52  Z   -0.076319  -0.092577  -0.048589   0.037639

     ----------------------------------------------------------------
     PROPERTY VALUES FOR THE RHF   SELF-CONSISTENT FIELD WAVEFUNCTION
     ----------------------------------------------------------------

                    -------------
                    MOPAC CHARGES
                    -------------
         ATOM NO.   TYPE          CHARGE        ATOM  ELECTRON DENSITY
           1         C             -0.0707          4.0707
           2         C              0.0456          3.9544
           3         C              0.0052          3.9948
           4         C             -0.0008          4.0008
           5         C              0.0015          3.9985
           6         C             -0.0042          4.0042
           7         C             -0.0051          4.0051
           8         C              0.0153          3.9847
           9         C              0.0073          3.9927
          10         C             -0.0008          4.0008
          11         C              0.0194          3.9806
          12         C             -0.0063          4.0063
          13         C              0.0073          3.9927
          14         C             -0.0314          4.0314
          15         C              0.0003          3.9997
          16         C              0.0162          3.9838
          17         C              0.0078          3.9922
          18         C             -0.0004          4.0004
          19         C              0.0066          3.9934
          20         C             -0.0351          4.0351
          21         C              0.0763          3.9237
          22         C             -0.0495          4.0495
          23         C              0.0148          3.9852
          24         C             -0.0172          4.0172
          25         C              0.0029          3.9971
          26         C              0.0296          3.9704
          27         C              0.0019          3.9981
          28         C              0.0121          3.9879
          29         C             -0.0099          4.0099
          30         C              0.0049          3.9951
          31         C              0.0085          3.9915
          32         C             -0.0114          4.0114
          33         C              0.0022          3.9978
          34         C             -0.0082          4.0082
          35         C              0.0331          3.9669
          36         C             -0.0308          4.0308
          37         C             -0.0010          4.0010
          38         C             -0.0188          4.0188
          39         C              0.0325          3.9675
          40         C              0.0095          3.9905
          41         C             -0.0045          4.0045
          42         C              0.0194          3.9806
          43         C             -0.0023          4.0023
          44         C             -0.0022          4.0022
          45         C             -0.0429          4.0429
          46         C             -0.0102          4.0102
          47         C             -0.0482          4.0482
          48         C             -0.0226          4.0226
          49         C              0.0112          3.9888
          50         C              0.0218          3.9782
          51         C              0.0222          3.9778
          52         C             -0.0008          4.0008

          ---------------------
          ELECTROSTATIC MOMENTS
          ---------------------

 POINT   1           X           Y           Z (ANGS)      CHARGE
                 0.000000    0.000000    0.000000       -0.00 (A.U.)
         DX          DY          DZ         /D/  (DEBYE)
    -0.092418    0.296621   -0.281523    0.419262
 ...... END OF PROPERTY EVALUATION ......
 CPU     0: STEP CPU TIME=     0.08 TOTAL CPU TIME=          1.1 (      0.0 MIN)
 TOTAL WALL CLOCK TIME=          2.7 SECONDS, CPU UTILIZATION IS    41.58%
  $VIB   
          IVIB=   0 IATOM=   0 ICOORD=   0 E=     -224.9378770869
  5.284777037E-05 6.800711344E-05-1.608535399E-04-4.604152508E-05 5.897641944E-06
 -3.448247778E-05-6.486869236E-06-3.161916574E-05 8.709892045E-05 2.255270148E-05
 -2.363896711E-05 2.764755161E-05-7.015378065E-05-3.188496965E-05 3.970139319E-05
  1.714121625E-04-3.429348740E-05-1.590973865E-05-8.635929747E-05-4.118680756E-05
  1.834516443E-04 1.720086318E-04-9.830764325E-05 1.284665913E-04-6.260144757E-05
 -4.467306448E-05-1.629974808E-05-1.330515702E-04-1.819182341E-05-9.309617098E-05
  7.172647853E-06-2.881643577E-05 4.208475506E-05 3.592445421E-05 2.234197243E-05
  1.022183513E-04-5.297432428E-05-2.194017753E-05-3.943690684E-05-3.442884346E-05
  3.494094769E-05 1.811997196E-05 1.458381954E-04-1.226539390E-04-3.276914187E-05
 -2.895634281E-05-1.214493654E-04 2.007766814E-05-1.328005337E-04 4.155059573E-05
 -2.275170999E-05 9.535462192E-06 2.955736732E-05-1.558969421E-04 3.062513997E-04
  1.183859698E-04-1.647619230E-04-1.208568335E-05 1.588378132E-05 6.523758771E-06
 -5.201872068E-05 2.111809632E-06 1.165129151E-04-3.338732226E-05 3.679381204E-05
 -2.529668511E-05-9.862975046E-06 2.264106419E-05-1.283294845E-05 3.648454670E-05
  3.881887015E-05-8.548664609E-05 2.381806925E-05 6.176124804E-05-1.030056993E-04
  7.192842893E-05 1.808954516E-06-3.845586685E-05-8.380767307E-05 4.182116620E-05
 -1.266661701E-05 1.467454135E-05-7.822324500E-05-3.219275230E-05-4.682751199E-05
  3.273948750E-05 5.897668890E-05 2.930609109E-05-1.767716213E-05-5.648437739E-06
 -1.338084499E-04 1.279190795E-05-3.596021481E-05 1.347941424E-04 1.726753304E-07
  2.481874893E-05 1.449441985E-04 1.182606817E-04 1.007484919E-04 6.248821847E-05
  1.312192264E-04 3.372170687E-05-6.198400714E-05 2.444646054E-05 5.472380424E-06
  2.677120596E-05 1.684347922E-05-1.260727649E-05-7.424968735E-06 8.808094359E-05
  5.762738850E-05-8.311135400E-05 5.100247421E-05 3.297784311E-05 8.158944944E-05
 -8.164924043E-05-3.811800146E-05 5.346110268E-05 2.724650081E-05 5.185714614E-06
 -1.700643724E-04 6.702390124E-05 6.649013089E-06 5.625669628E-06-1.138188253E-04
 -1.147703643E-04-3.324749674E-05-1.071889199E-04 1.537921804E-04-1.018270471E-04
  1.268217110E-04-2.081578937E-04 1.031848442E-04-6.413670803E-05-3.871344069E-05
  1.644287344E-04 5.311950225E-05-7.488960779E-05-5.581659687E-05 2.715946879E-05
  4.847630901E-05 7.948437475E-05-7.799638192E-05 3.447691323E-05 4.074320042E-05
 -5.023480114E-05 7.449601808E-05-7.359262762E-05-2.070238519E-06-1.962637536E-06
 -1.257443055E-04-6.129429450E-05-7.995408915E-06-2.588045970E-04-4.630507180E-05
  1.756958795E-04
 -9.241790490E-02 2.966214703E-01-2.815228678E-01
 ......END OF GEOMETRY SEARCH......
 CPU     0: STEP CPU TIME=     0.03 TOTAL CPU TIME=          1.2 (      0.0 MIN)
 TOTAL WALL CLOCK TIME=          2.8 SECONDS, CPU UTILIZATION IS    42.24%
                580000  WORDS OF DYNAMIC MEMORY USED
 EXECUTION OF GAMESS TERMINATED NORMALLY 21:11:07 27-MAY-2023    
 DDI: 263640 bytes (0.3 MB / 0 MWords) used by master data server.

 ----------------------------------------
 CPU timing information for all processes
 ========================================
 0: 0.687500 + 0.515625 = 1.203125
 1: 1.484375 + 0.328125 = 1.812500
 2: 0.593750 + 0.718750 = 1.312500
 3: 1.109375 + 1.015625 = 2.125000
 ----------------------------------------
           Disk usage (in bytes)       
 ========================================
 ----------------------------------------
            Local date and time          
 ========================================
27.05.2023 - 21:11:07,70                          
