          *******************************************************
          *                                                     *
          *          GAMESS VERSION = 30 SEP 2022 (R2)          *
          *                                                     *
          *              doi.org/10.1063/5.0005188              *
          *                                                     *
          *************** 64 BIT WINDOWS VERSION ****************

  GAMESS HAS BEEN MADE POSSIBLE WITH IMPORTANT CONTRIBUTIONS FROM
  THE FOLLOWING INDIVIDUALS (IN ALPHABETICAL ORDER):

     IVANA ADAMOVIC, CHRISTINE AIKENS, TOMOKO AKAMA,
     MELISA ALKAN, YURI ALEXEEV, YURIKO AOKI, POOJA ARORA,
     TOSHIO ASADA, ANDREY ASADCHEV, KIM K. BALDRIDGE,
     PRADIPTA BANDYOPADHYAY, TAYLOR A. BARNES, MARIA BARYSZ,
     ROB BELL, JONATHAN BENTZ, COLLEEN BERTONI,
     JERRY A. BOATZ, BRETT BODE, KURT BRORSEN, KURT R. BRORSEN,
     LAIMUTIS BYTAUTAS, CALEB CARLIN, LAURA CARRINGTON,
     GALINA CHABAN, BENOIT CHAMPAGNE, WEI CHEN, MAHITO CHIBA,
     DAN CHIPMAN, CHEOL HO CHOI, TANNER CULPITT,
     DIPAYAN DATTA, PAUL DAY, ALBERT DEFUSCO,
     NUWAN DESILVA, J. EMILIANO DEUSTUA,
     TIM DUDLEY, MICHEL DUPUIS, STEVEN T. ELBERT,
     DMITRI FEDOROV, KATHERINE FERRERAS, MICHAEL FILATOV,
     ALEX FINDLATER,GRAHAM FLETCHER, MARK FREITAG,
     CHRISTIAN FRIEDL, DAVID GARMER, 
     IGOR S. GERASIMOV, KURT GLAESEMANN,
     MARK S. GORDON, JEFFREY GOUR, FENG LONG GU,
     EMILIE B. GUIDEZ, ANASTASIA GUNINA, SHARON HAMMES-SCHIFFER,
     MASATAKE HARUTA, KIMIHIKO HIRAO, YASUHIRO IKABATA,
     TZVETELIN IORDANOV, STEPHAN IRLE, KAZUYA ISHIMURA,
     JOE IVANIC, FRANK JENSEN, JAN H. JENSEN, VISVALDAS KAIRYS,
     MUNEAKI KAMIYA, MICHIO KATOUDA, NAOAKI KAWAKAMI, DAN KEMP,
     BERNARD KIRTMAN, KAZUO KITAURA, MARIUSZ KLOBUKOWSKI,
     MASATO KOBAYASHI, KONSTANTIN KOMAROV, PRAKASHAN KORAMBATH,
     JACEK KORCHOWIEC, SHIRO KOSEKI, KAROL KOWALSKI,
     JIMMY KROMANN, STANISLAW KUCHARSKI, HENRY KURTZ,
     SAROM SOK LEANG, SEUNGHOON LEE, HUI LI, SHUHUA LI, WEI LI,
     JESSE LUTZ, ALEKSANDR O. LYKHIN, MARCIN MAKOWSKI,
     JOANI MATO, NIKITA MATSUNAGA, BENEDETTA MENNUCCI,
     GRANT MERRILL, NORIYUKI MINEZAWA, VLADIMIR MIRONOV,
     EISAKU MIYOSHI, JOHN A. MONTGOMERY JR., HIROTOSHI MORI,
     JONATHAN MULLIN, MONIKA MUSIAL, SHIGERU NAGASE,
     TAKESHI NAGATA, HIROMI NAKAI, TAKAHITO NAKAJIMA,
     YUYA NAKAJIMA, HARUYUKI NAKANO, HIROYA NAKATA, SEAN NEDD,
     HEATHER NETZLOFF, KIET A. NGUYEN, YOSHIO NISHIMOTO,
     BOSILJKA NJEGIC, RYAN OLSON, MIKE PAK, ROBERTO PEVERATI,
     BUU PHAM, PIOTR PIECUCH, ANNA POMOGAEVA, DAVID POOLE,
     SPENCER PRUITT, OLIVIER QUINET, LUKE ROSKOP,
     KLAUS RUEDENBERG, ANDREW SAND, TOSAPORN SATTASATHUCHANA,
     NOZOMI SAWADA, MICHAEL W. SCHMIDT, PATRICK E. SCHNEIDER,
     JUNJI SEINO, PRACHI SHARMA, JUN SHEN, JIM SHOEMAKER,
     YINAN SHU, DEJUN SI, JONATHAN SKONE, LYUDMILA SLIPCHENKO,
     TONY SMITH, JIE SONG, MARK SPACKMAN, CASPER STEINMANN,
     WALT STEVENS, PEIFENG SU, SHUJUN SU, CHET SWALINA,
     CHINAMI TAKASHIMA, TETSUYA TAKETSUGU, ZHEN TAO,
     NANDUN THELLAMUREGE, SEIKEN TOKURA, JACOPO TOMASI,
     TSUGUKI TOUMA, TAKAO TSUNEDA, HIROAKI UMEDA,
     JORGE LUIS GALVEZ VALLEJO, YALI WANG, SIMON WEBB,
     AARON WEST, THERESA L. WINDUS, MARTA WLOCH,
     PENG XU, KIYOSHI YAGI, SUSUMU YANAGISAWA, YANG YANG,
     SOOHAENG YOO, TAKESHI YOSHIKAWA, FEDERICO ZAHARIEV,
     TOBY ZENG

  WHO ARE SUPPORTED BY THEIR INSTITUTION/UNIVERSITY/COMPANY/GROUP
  (IN ALPHABETICAL ORDER):

     EP ANALYTICS,
     FACULTES UNIVERSITAIRES NOTRE-DAME DE LA PAIX,
     INSTITUTE FOR MOLECULAR SCIENCE, IOWA STATE UNIVERSITY,
     JACKSON STATE UNIVERSITY, JOHANNES KEPLER UNIVERSITY LINZ,
     KYUNGPOOK NATIONAL UNIVERSITY
     KYUSHU UNIVERSITY, MICHIGAN STATE UNIVERSITY,
     MIE UNIVERSITY, THE MOLECULAR SCIENCES SOFTWARE INSTITUTE,
     MOSCOW STATE UNIVERSITY,
     N. COPERNICUS UNIVERSITY, NAGOYA UNIVERSITY,
     NANJING UNIVERSITY, NAT. INST. OF ADVANCED INDUSTRIAL
     SCIENCE AND TECHNOLOGY, NATIONAL INST. OF STANDARDS AND
     TECHNOLOGY, NESMEYANOV INSTITUTE OF ORGANOELEMENT COMPOUNDS
     OF RUSSIAN ACADEMY OF SCIENCES, OSAKA PREFECTURE UNIVERSITY,
     PENNSYLVANIA STATE UNIVERSITY, TOKYO INSTITUTE OF TECHNOLOGY,
     UNIVERSITY OF AARHUS, UNIVERSITY OF ALBERTA,
     UNIVERSITY OF CALIFORNIA AT SANTA BARBARA,
     UNIVERSITY OF COPENHAGEN, UNIVERSITY OF IOWA,
     UNIVERSITY OF MEMPHIS, UNIVERSITY OF MINNESOTA,
     UNIVERSITY OF NEBRASKA, UNIVERSITY OF NEW ENGLAND,
     UNIVERSITY OF NOTRE DAME, UNIVERSITY OF PISA,
     UNIVERSITY OF SILESIA, UNIVERSITY OF TOKYO,
     UNIVERSITY OF ZURICH, WASEDA UNIVERSITY,
     YALE UNIVERSITY

  GAMESS SOFTWARE MANAGEMENT TEAM FOR THIS RELEASE:
     MARK S. GORDON (TEAM LEAD),
     BRETT BODE (SENIOR ADVISOR),
     GIUSEPPE BARCA,
     COLLEEN BERTONI,
     KRISTOPHER KEIPERT (ADVISOR),
     SAROM S. LEANG (DEVELOPMENT LEAD),
     BUU PHAM,
     JACKSON HAYES (WEBSITE ADMINISTRATOR),
     PENG XU


 PARALLEL VERSION RUNNING ON        2 PROCESSORS IN        2 NODES.

 EXECUTION OF GAMESS BEGUN 21:11:12 27-MAY-2023    

            ECHO OF THE FIRST FEW INPUT CARDS -
 INPUT CARD>! (Energy/Geometry) PM3                                                         
 INPUT CARD> $CONTRL                                                                        
 INPUT CARD>COORD=UNIQUE                                                                    
 INPUT CARD>ICHARG=0                                                                        
 INPUT CARD>MAXIT=200                                                                       
 INPUT CARD>MULT=1                                                                          
 INPUT CARD>RUNTYP=OPTIMIZE                                                                 
 INPUT CARD>SCFTYP=RHF                                                                      
 INPUT CARD>UNITS=ANGS                                                                      
 INPUT CARD>! DFTTYP=PBE                                                                    
 INPUT CARD> $END                                                                           
 INPUT CARD> $DFT                                                                           
 INPUT CARD>METHOD=GRID                                                                     
 INPUT CARD> $END                                                                           
 INPUT CARD> $BASIS                                                                         
 INPUT CARD>! EXTFIL=.T.                                                                    
 INPUT CARD>! GBASIS=GEGSSBAS                                                               
 INPUT CARD>! NGAUSS=6                                                                      
 INPUT CARD>GBASIS=PM3                                                                      
 INPUT CARD>! NDFUNC=1                                                                      
 INPUT CARD>! NPFUNC=1                                                                      
 INPUT CARD> $END                                                                           
 INPUT CARD> $SCF                                                                           
 INPUT CARD>DAMP=.F.                                                                        
 INPUT CARD>DEM=.F.                                                                         
 INPUT CARD>DIIS=.F.                                                                        
 INPUT CARD>DIRSCF=.T.                                                                      
 INPUT CARD>EXTRAP=.T.                                                                      
 INPUT CARD>RSTRCT=.F.                                                                      
 INPUT CARD>SHIFT=.F.                                                                       
 INPUT CARD>SOSCF=.T.                                                                       
 INPUT CARD> $END                                                                           
 INPUT CARD> $STATPT                                                                        
 INPUT CARD>METHOD=QA                                                                       
 INPUT CARD>NSTEP=100                                                                       
 INPUT CARD>OPTTOL=0.001                                                                    
 INPUT CARD> $END                                                                           
 INPUT CARD> $GUESS                                                                         
 INPUT CARD>GUESS=HUCKEL                                                                    
 INPUT CARD> $END                                                                           
 INPUT CARD> $SYSTEM                                                                        
 INPUT CARD>MWORDS=10                                                                       
 INPUT CARD> $END                                                                           
 INPUT CARD> $DATA                                                                          
 INPUT CARD>C52 FULLERENE                                                                   
 INPUT CARD>C1                                                                              
 INPUT CARD>C	6.0	3.7587	-0.7618	-1.3766                                                    
 INPUT CARD>C	6.0	3.7945	-1.6287	-0.326                                                     
 INPUT CARD>C	6.0	3.5485	1.3139	-1.251                                                      
 INPUT CARD>C	6.0	4.4757	0.3457	-1.0216                                                     
     10000000 WORDS OF MEMORY AVAILABLE

     BASIS OPTIONS
     -------------
     GBASIS=PM3          IGAUSS=       0      POLAR=NONE    
     NDFUNC=       0     NFFUNC=       0     DIFFSP=       F
     NPFUNC=       0      DIFFS=       F     BASNAM=        


     RUN TITLE
     ---------
 C52 FULLERENE                                                                   

 THE POINT GROUP OF THE MOLECULE IS C1      
 THE ORDER OF THE PRINCIPAL AXIS IS     0

 ATOM      ATOMIC                      COORDINATES (BOHR)
           CHARGE         X                   Y                   Z
 C           6.0     7.1029130701       -1.4395932574       -2.6013967947
 C           6.0     7.1705652604       -3.0777967162       -0.6160506720
 C           6.0     6.7056926674        2.4829109753       -2.3640472106
 C           6.0     8.4578466032        0.6532782740       -1.9305440691
 C           6.0     0.4801793735       -4.5891995612       -0.3148283496
 C           6.0     4.9019492122       -4.0765169007        0.0746441765
 C           6.0     2.7465277506       -4.1145003931       -1.4475301066
 C           6.0     4.7991481184       -0.8915727210       -3.7191697164
 C           6.0     0.1233991070       -1.3515320264       -4.0888001196
 C           6.0     2.5855230964       -2.3243629649       -3.4950482143
 C           6.0    -4.5563183290       -1.7173829776       -3.6430137591
 C           6.0    -2.1225402294       -2.6958830941       -3.4570647219
 C           6.0    -1.8424828380       -4.3199136079       -1.3711851767
 C           6.0     1.8591124267        4.3314409365       -1.4044443541
 C           6.0     2.1476735850        2.7217723401       -3.5137565016
 C           6.0     4.5706802465        1.7283433884       -3.7051857441
 C           6.0    -2.5932709730        2.3528978273       -3.4616000643
 C           6.0    -0.1320918465        1.4002869569       -4.0982487496
 C           6.0    -4.8023606526        0.9070684741       -3.6764619091
 C           6.0     4.5077523711       -3.2134790421        2.5838223430
 C           6.0     6.5312709588       -1.6565338008        3.0076878821
 C           6.0     0.1235880796       -4.0175574499        2.2423488570
 C           6.0     2.0724624907       -2.7852671333        3.4402461606
 C           6.0     1.3415164787       -0.3276784863        4.3303071009
 C           6.0     3.3402796559        1.4736083252        3.8633558093
 C           6.0     5.8874413147        0.8341250510        3.3707042443
 C           6.0     2.3978733058        3.5292522547        2.5012413173
 C           6.0    -2.4008968674       -3.5959595820        2.5535867272
 C           6.0    -5.8653315207       -0.8698408721        3.3461378065
 C           6.0    -3.3293192452       -1.5131035984        3.8858435486
 C           6.0    -1.3324457939        0.2938523911        4.3100870328
 C           6.0    -2.0654705046        2.7289532989        3.3637122581
 C           6.0    -0.1122497237        3.9463147802        2.1520199548
 C           6.0    -6.1429322683       -3.5334096518       -0.0319363692
 C           6.0    -3.7488384144       -4.2893000469        0.4106374571
 C           6.0    -7.5127946368       -2.1123357091        1.6845017455
 C           6.0    -8.4574686580       -0.6901279307       -1.9413155072
 C           6.0    -6.7107949276       -2.4987846736       -2.3508191287
 C           6.0     8.4381934530       -1.8417269476        1.2765099047
 C           6.0     9.1804778210        0.4981317704        0.5419734133
 C           6.0     7.5190307325        2.1248079006        1.7107689367
 C           6.0     3.7673577291        4.2615210749        0.3864489645
 C           6.0     6.1744906923        3.5224492411       -0.0285348624
 C           6.0    -6.5140744523        1.6264871576        2.9612006228
 C           6.0    -4.4986816864        3.1618895227        2.5012413173
 C           6.0    -9.1880367249       -0.4739432777        0.5226982082
 C           6.0    -8.4461303021        1.8642146869        1.2544001106
 C           6.0    -7.2317923824        3.1420473998       -0.6360817675
 C           6.0    -7.1265346449        1.4426168190       -2.5739957679
 C           6.0    -0.4815021817        4.6421118888       -0.3758664990
 C           6.0    -4.9439011291        4.1475705979        0.0438416429
 C           6.0    -2.7782751471        4.2048292953       -1.4664273665

          INTERNUCLEAR DISTANCES (ANGS.)
          ------------------------------

                1 C          2 C          3 C          4 C          5 C     

   1 C       0.0000000    1.3625555 *  2.0900933 *  1.3662614 *  4.0649982  
   2 C       1.3625555 *  0.0000000    3.0943555    2.2013969 *  3.6331144  
   3 C       2.0900933 *  3.0943555    0.0000000    1.3600498 *  5.1024065  
   4 C       1.3662614 *  2.2013969 *  1.3600498 *  0.0000000    5.1233892  
   5 C       4.0649982    3.6331144    5.1024065    5.1233892    0.0000000  
   6 C       2.3041281 *  1.3616544 *  3.8242641    3.3062421    2.3645746 *
   7 C       2.7732437 *  2.4444450 *  4.1003837    3.9452703    1.3640756 *
   8 C       1.3857045 *  2.3684772 *  2.1727485 *  2.3049190 *  3.5067916  
   9 C       3.7766257    4.2565897    4.1331526    4.6777697    2.6380771 *
  10 C       2.4813980 *  2.8925673 *  3.4034303    3.5811737    2.3472907 *
  11 C       6.1961167    6.4493016    6.3965057    7.0585397    3.5375987  
  12 C       4.9477201    5.1463413    5.4469870    5.9280072    2.3802653 *
  13 C       5.0154663    4.8311338    5.8049442    6.0599993    1.3577459 *
  14 C       4.1746342    4.8421858    2.7914910 *  4.0074113    4.8113401  
  15 C       3.4580736    4.3399355    2.4907572 *  3.6125219    4.3141413  
  16 C       2.2242054 *  3.3216629    1.3926818 *  2.3316957 *  4.3681353  
  17 C       5.5282923    6.1009821    4.9554349    5.9719719    4.3489545  
  18 C       4.1885568    4.8933229    3.7766660    4.7047401    3.7628594  
  19 C       6.4463722    6.8710813    6.1857403    7.0788358    4.4088682  
  20 C       3.2087533    2.2040832 *  4.1587142    3.7766562    2.7249354 *
  21 C       2.9857824 *  2.0874125 *  3.5898725    3.0597732    3.9690182  
  22 C       4.6980316    4.0548061    5.4687102    5.5169008    1.3993799 *
  23 C       4.2207557    3.4510216    4.8184297    4.7755751    2.3600429 *
  24 C       4.8058666    4.2992978    4.7769255    5.0425535    3.3668212  
  25 C       4.2478525    3.9405573    3.7837189    4.1137093    4.1799991  
  26 C       3.4422220    3.0326868    3.1871852    3.1191362    4.4975111  
  27 C       4.5170708    4.6177862    3.4830626    4.2543753    4.6590761  
  28 C       5.8340724    5.3425411    6.3515769    6.6110265    2.2146514 *
  29 C       7.5558127    7.3039614    7.5187467    8.1175979    4.3476931  
  30 C       6.5009412    6.1019183    6.6037151    7.0494048    3.4139230  
  31 C       5.8432461    5.4977428    5.6487711    6.1467642    3.6860395  
  32 C       6.1942805    6.1453228    5.5450370    6.3297602    4.5388281  
  33 C       5.3877820    5.5510606    4.3963373    5.3170589    4.7120944  
  34 C       7.2255198    7.0560977    7.6084209    8.1003160    3.5522076  
  35 C       6.1474293    5.8390868    6.7531588    7.0781957    2.2761286 *
  36 C       8.0678347    7.8814679    8.1923820    8.7878253    4.5527641  
  37 C       8.2511424    8.3953055    8.2008533    8.9793871    5.2313600  
  38 C       7.3325562    7.4091777    7.5733308    8.2013907    4.1066747  
  39 C       2.1807526 *  1.3714305 *  3.1287628    2.1502206 *  4.5340008  
  40 C       2.2421028 *  2.2555638 *  2.2766227 *  1.3656064 *  5.3525499  
  41 C       2.9687213 *  3.0215332    2.2069853 *  2.1368499 *  5.2579657  
  42 C       3.8362926    4.3137656    2.3285299 *  3.3630269    5.0099585  
  43 C       2.9983135 *  3.5459056    1.3816932 *  2.1859245 *  5.2467595  
  44 C       7.9511534    7.8880499    7.5554572    8.3508583    5.2462450  
  45 C       7.1352162    7.1941354    6.4739392    7.3668900    5.0976743  
  46 C       8.7927461    8.7862653    8.6902267    9.4464620    5.5780199  
  47 C       8.6558108    8.7242576    8.2499681    9.1251192    5.8876299  
  48 C       8.0312594    8.3017567    7.4400480    8.4342682    5.7811226  
  49 C       7.6828276    8.0022161    7.3412125    8.2644887    5.2745129  
  50 C       5.2775576    5.7534202    4.1082283    5.2449921    4.9115423  
  51 C       7.1652127    7.4724941    6.3563430    7.4030955    5.4451399  
  52 C       6.0517508    6.5399802    5.1228176    6.2406883    5.0000572  

                6 C          7 C          8 C          9 C         10 C     

   1 C       2.3041281 *  2.7732437 *  1.3857045 *  3.7766257    2.4813980 *
   2 C       1.3616544 *  2.4444450 *  2.3684772 *  4.2565897    2.8925673 *
   3 C       3.8242641    4.1003837    2.1727485 *  4.1331526    3.4034303  
   4 C       3.3062421    3.9452703    2.3049190 *  4.6777697    3.5811737  
   5 C       2.3645746 *  1.3640756 *  3.5067916    2.6380771 *  2.3472907 *
   6 C       0.0000000    1.3964966 *  2.6218296 *  3.6507229    2.4352837 *
   7 C       1.3964966 *  0.0000000    2.3523616 *  2.4531864 *  1.4417380 *
   8 C       2.6218296 *  2.3523616 *  0.0000000    2.4939253 *  1.4003968 *
   9 C       3.6507229    2.4531864 *  2.4939253 *  0.0000000    1.4357190 *
  10 C       2.4352837 *  1.4417380 *  1.4003968 *  1.4357190 *  0.0000000  
  11 C       5.5208512    4.2300392    4.9701130    2.4951326 *  3.7937328  
  12 C       4.2242324    2.8867348 *  3.7877414    1.4249136 *  2.4992258 *
  13 C       3.6523593    2.4311673 *  4.1457859    2.3701832 *  2.8051512 *
  14 C       4.7960019    4.4940606    3.4000054    3.4504081    3.7117181  
  15 C       4.3211264    3.7924898    2.3741592 *  2.4261591 *  2.6803517 *
  16 C       3.6698073    3.4523844    1.3916812 *  2.8698342 *  2.3906536 *
  17 C       5.5505806    4.5643545    4.2742584    2.4534929 *  3.6928002  
  18 C       4.5135434    3.5783355    2.8845475 *  1.4624714 *  2.4606628 *
  19 C       6.1046175    4.9406570    5.1693306    2.8758438 *  4.2681971  
  20 C       1.4195569 *  2.3763272 *  3.5578609    4.3383915    3.4064451  
  21 C       2.1891413 *  3.3557870    3.6980377    5.0622654    4.0405204  
  22 C       2.7768021 *  2.3962100 *  4.3370699    3.6352258    3.4231575  
  23 C       2.4250293 *  2.7040689 *  4.1760813    4.1848849    3.6881024  
  24 C       3.5435574    3.7305112    4.6455395    4.5340780    4.3240772  
  25 C       3.6508259    4.0916391    4.2734813    4.7792213    4.4001447  
  26 C       3.1728407    4.0151135    3.9040490    5.1208798    4.3642614  
  27 C       4.4276199    4.5564991    4.2335280    4.5034176    4.4354876  
  28 C       4.0889911    3.4609082    5.2519830    3.9433765    4.2024579  
  29 C       6.1920471    5.4909933    6.7695437    5.0584259    5.8049178  
  30 C       4.9880425    4.4942092    5.8996621    4.5993483    5.0235916  
  31 C       4.6104303    4.4027342    5.3828185    4.5940412    4.8246825  
  32 C       5.4399146    5.1069371    5.5600997    4.6429522    5.1363009  
  33 C       5.1257450    4.9104145    4.7918410    4.3337822    4.6881866  
  34 C       5.8520336    4.7732865    6.2681065    4.1155446    5.0101900  
  35 C       4.5826351    3.5762800    5.3357216    3.5049612    4.0729290  
  36 C       6.7056491    5.7743879    7.1443605    5.0817906    6.0067729  
  37 C       7.3706958    6.2051462    7.0787072    4.6939077    5.9642872  
  38 C       6.3330809    5.0995618    6.1923756    3.7806733    4.9573830  
  39 C       2.3032157 *  3.5490775    3.3090405    5.2429329    4.0041082  
  40 C       3.3237898    4.3195327    3.3167498    5.4711911    4.3559179  
  41 C       3.6655772    4.4802474    3.5882958    5.3027497    4.4663046  
  42 C       4.4560180    4.5694481    3.5290637    4.2602106    4.0934048  
  43 C       4.0775603    4.4929447    3.1304734    4.6392024    4.0675324  
  44 C       6.9235732    6.2199062    7.0790582    5.3608336    6.2634346  
  45 C       6.4083947    5.8217123    6.2964023    4.8834560    5.7053164  
  46 C       7.6996107    6.6846060    7.7377440    5.5181521    6.6555069  
  47 C       7.7566509    6.8654718    7.6276483    5.6084713    6.7311433  
  48 C       7.4807115    6.5430538    6.9101523    4.9134432    6.1356046  
  49 C       7.1421396    6.0249064    6.4590364    4.1889799    5.5339529  
  50 C       5.4275891    4.9710816    4.4174292    3.7446741    4.3530325  
  51 C       6.7886931    6.0249265    6.1366363    4.5211806    5.5777866  
  52 C       6.0321899    5.2847576    4.9772350    3.5956690    4.5985468  

               11 C         12 C         13 C         14 C         15 C     

   1 C       6.1961167    4.9477201    5.0154663    4.1746342    3.4580736  
   2 C       6.4493016    5.1463413    4.8311338    4.8421858    4.3399355  
   3 C       6.3965057    5.4469870    5.8049442    2.7914910 *  2.4907572 *
   4 C       7.0585397    5.9280072    6.0599993    4.0074113    3.6125219  
   5 C       3.5375987    2.3802653 *  1.3577459 *  4.8113401    4.3141413  
   6 C       5.5208512    4.2242324    3.6523593    4.7960019    4.3211264  
   7 C       4.2300392    2.8867348 *  2.4311673 *  4.4940606    3.7924898  
   8 C       4.9701130    3.7877414    4.1457859    3.4000054    2.3741592 *
   9 C       2.4951326 *  1.4249136 *  2.3701832 *  3.4504081    2.4261591 *
  10 C       3.7937328    2.4992258 *  2.8051512 *  3.7117181    2.6803517 *
  11 C       0.0000000    1.3915767 *  2.3247253 *  4.8139780    4.2553984  
  12 C       1.3915767 *  0.0000000    1.4067360 *  4.4099897    3.6505150  
  13 C       2.3247253 *  1.4067360 *  0.0000000    4.9795790    4.4304905  
  14 C       4.8139780    4.4099897    4.9795790    0.0000000    1.4123679 *
  15 C       4.2553984    3.6505150    4.4304905    1.4123679 *  0.0000000  
  16 C       5.1626387    4.2477656    4.8256100    2.3321129 *  1.3894816 *
  17 C       2.3932419 *  2.6832886 *  3.7215847    2.7986543 *  2.5165338 *
  18 C       2.8742112 *  2.4337328 *  3.4733950    2.3554713 *  1.4283165 *
  19 C       1.3950021 *  2.3789936 *  3.4047331    4.1419273    3.8020787  
  20 C       5.8728941    4.7543860    4.0019156    4.7285883    4.6728973  
  21 C       6.8419604    5.7425295    5.1953207    4.6480870    4.7600877  
  22 C       4.1610234    3.3163514    2.1827829 *  4.9078706    4.8108073  
  23 C       5.1646638    4.2722317    3.3814305    4.5571987    4.6942315  
  24 C       5.2994289    4.6810878    4.0502912    3.9195810    4.4739229  
  25 C       6.0076016    5.3133090    4.9592222    3.2668192    4.0092645  
  26 C       6.7927594    5.8745632    5.5197362    3.7887279    4.2645539  
  27 C       5.6411345    5.1493014    5.1465232    2.1291182 *  3.2142813  
  28 C       3.6113294    3.2195359    2.1325101 *  5.2025786    5.2229522  
  29 C       3.7894443    4.2210463    3.7545284    5.5320767    5.8966135  
  30 C       4.0381096    3.9872579    3.2502520    4.9940897    5.3623624  
  31 C       4.6642775    4.4239792    3.8822943    4.0696460    4.7099318  
  32 C       4.5848999    4.6118975    4.4950641    3.3762021    4.2680109  
  33 C       4.8905150    4.7219068    4.8423973    2.1614173 *  3.2923068  
  34 C       2.2978224 *  2.8298125 *  2.4195637 *  5.9816313    5.7964724  
  35 C       2.5761134 *  2.3749946 *  1.3809418 *  5.5263136    5.2738787  
  36 C       3.2309797    3.9540227    3.6031903    6.2365843    6.3438429  
  37 C       2.3169265 *  3.6066397    4.0042472    6.0783149    5.9537186  
  38 C       1.3922617 *  2.4997511 *  2.7989753 *  5.8207313    5.4758750  
  39 C       7.3529843    6.1408599    5.7688574    4.9804499    4.8309802  
  40 C       7.6889690    6.5658989    6.4459654    4.4928736    4.4543354  
  41 C       7.2795919    6.3259473    6.2315157    3.6127136    3.9777628  
  42 C       5.8273792    5.2350842    5.5044765    1.3853521 *  2.3786977 *
  43 C       6.6024392    5.7790225    5.9770618    2.4347953 *  2.8498595 *
  44 C       4.0519197    4.7082678    4.6118341    5.1979616    5.7520033  
  45 C       4.1520183    4.5968711    4.6744194    3.9967345    4.7492867  
  46 C       3.3615092    4.4493949    4.5006655    6.4560731    6.5882864  
  47 C       3.8138646    4.8204586    4.9850997    5.7812387    6.1643904  
  48 C       3.3390147    4.3683200    4.8863981    4.8687064    5.1965105  
  49 C       2.2284841 *  3.4679062    4.1860133    5.0328904    4.9790582  
  50 C       4.3547639    4.3001296    4.8257028    1.3628719 *  2.3928306 *
  51 C       3.6716209    4.3330952    4.8303010    3.6819609    4.2657016  
  52 C       3.4688997    3.8164084    4.5384784    2.4551336 *  2.9299405 *

               16 C         17 C         18 C         19 C         20 C     

   1 C       2.2242054 *  5.5282923    4.1885568    6.4463722    3.2087533  
   2 C       3.3216629    6.1009821    4.8933229    6.8710813    2.2040832 *
   3 C       1.3926818 *  4.9554349    3.7766660    6.1857403    4.1587142  
   4 C       2.3316957 *  5.9719719    4.7047401    7.0788358    3.7766562  
   5 C       4.3681353    4.3489545    3.7628594    4.4088682    2.7249354 *
   6 C       3.6698073    5.5505806    4.5135434    6.1046175    1.4195569 *
   7 C       3.4523844    4.5643545    3.5783355    4.9406570    2.3763272 *
   8 C       1.3916812 *  4.2742584    2.8845475 *  5.1693306    3.5578609  
   9 C       2.8698342 *  2.4534929 *  1.4624714 *  2.8758438 *  4.3383915  
  10 C       2.3906536 *  3.6928002    2.4606628 *  4.2681971    3.4064451  
  11 C       5.1626387    2.3932419 *  2.8742112 *  1.3950021 *  5.8728941  
  12 C       4.2477656    2.6832886 *  2.4337328 *  2.3789936 *  4.7543860  
  13 C       4.8256100    3.7215847    3.4733950    3.4047331    4.0019156  
  14 C       2.3321129 *  2.7986543 *  2.3554713 *  4.1419273    4.7285883  
  15 C       1.3894816 *  2.5165338 *  1.4283165 *  3.8020787    4.6728973  
  16 C       0.0000000    3.8075617    2.5033040 *  4.9790268    4.2326636  
  17 C       3.8075617    0.0000000    1.4366155 *  1.4017370 *  5.7472697  
  18 C       2.5033040 *  1.4366155 *  0.0000000    2.4951467 *  4.9490117  
  19 C       4.9790268    1.4017370 *  2.4951467 *  0.0000000    6.3246816  
  20 C       4.2326636    5.7472697    4.9490117    6.3246816    0.0000000  
  21 C       4.1114035    6.2877413    5.4027648    7.0937611    1.3695745 *
  22 C       4.9687792    4.7478453    4.4154313    4.8369589    2.3656083 *
  23 C       4.6636991    5.1795962    4.7096130    5.5888751    1.3847330 *
  24 C       4.7100898    4.8321115    4.6192640    5.3804648    2.4481586 *
  25 C       4.0599173    5.0100302    4.5965338    5.8801192    2.6442446 *
  26 C       3.8379656    5.8187733    5.0850761    6.7755302    2.3009065 *
  27 C       3.6078907    4.1617296    3.9061199    5.2086536    3.7389597  
  28 C       5.7024422    4.4779898    4.5631182    4.2616939    3.6615334  
  29 C       6.8052702    4.3456286    5.1153244    3.8743661    5.6419982  
  30 C       6.0460833    4.4107062    4.8052044    4.2734314    4.2992591  
  31 C       5.3220937    4.3064908    4.5325864    4.6193660    3.7189257  
  32 C       5.1580271    3.6280448    4.1392409    4.1117407    4.7072388  
  33 C       4.1382909    3.3554667    3.5713980    4.2730976    4.5148937  
  34 C       6.6085806    4.0650769    4.6437063    3.1215872    5.8060568  
  35 C       5.8537248    4.1142758    4.2919606    3.5425852    4.5537360  
  36 C       7.2905553    4.4470536    5.2984754    3.5578340    6.4053369  
  37 C       7.0738333    3.5874973    4.6835653    2.3018653 *  7.3884426  
  38 C       6.4153789    3.4182827    4.1511115    2.1818079 *  6.4965485  
  39 C       3.8349966    6.7298733    5.6214585    7.6208888    2.3090046 *
  40 C       3.3801967    6.6535474    5.5265337    7.7318247    3.3375761  
  41 C       3.2698924    6.0117906    5.0979656    7.1453006    3.2760870  
  42 C       2.5818097 *  4.0615146    3.4903595    5.3234198    4.1415435  
  43 C       2.3252981 *  5.0209812    4.1275529    6.2755793    3.9235971  
  44 C       6.8450845    4.0005499    5.0373865    3.6473363    6.3732003  
  45 C       5.8647575    3.3401329    4.2900455    3.4837574    5.8393936  
  46 C       7.7054343    4.3430141    5.4706800    3.2951342    7.4711119  
  47 C       7.3715988    3.9859179    5.2383019    3.2837393    7.3962514  
  48 C       6.4965278    2.9043199 *  4.2803236    2.3748907 *  7.2668467  
  49 C       6.2206146    2.4914603 *  3.7882353    1.3904406 *  7.1710635  
  50 C       3.5537300    2.3200557 *  2.6186333 *  3.4907372    5.1676191  
  51 C       5.5610241    2.4269821 *  3.6608201    2.6118822 *  6.4804297  
  52 C       4.2713543    1.4438483 *  2.4704263 *  2.3580414 *  5.9050590  

               21 C         22 C         23 C         24 C         25 C     

   1 C       2.9857824 *  4.6980316    4.2207557    4.8058666    4.2478525  
   2 C       2.0874125 *  4.0548061    3.4510216    4.2992978    3.9405573  
   3 C       3.5898725    5.4687102    4.8184297    4.7769255    3.7837189  
   4 C       3.0597732    5.5169008    4.7755751    5.0425535    4.1137093  
   5 C       3.9690182    1.3993799 *  2.3600429 *  3.3668212    4.1799991  
   6 C       2.1891413 *  2.7768021 *  2.4250293 *  3.5435574    3.6508259  
   7 C       3.3557870    2.3962100 *  2.7040689 *  3.7305112    4.0916391  
   8 C       3.6980377    4.3370699    4.1760813    4.6455395    4.2734813  
   9 C       5.0622654    3.6352258    4.1848849    4.5340780    4.7792213  
  10 C       4.0405204    3.4231575    3.6881024    4.3240772    4.4001447  
  11 C       6.8419604    4.1610234    5.1646638    5.2994289    6.0076016  
  12 C       5.7425295    3.3163514    4.2722317    4.6810878    5.3133090  
  13 C       5.1953207    2.1827829 *  3.3814305    4.0502912    4.9592222  
  14 C       4.6480870    4.9078706    4.5571987    3.9195810    3.2668192  
  15 C       4.7600877    4.8108073    4.6942315    4.4739229    4.0092645  
  16 C       4.1114035    4.9687792    4.6636991    4.7100898    4.0599173  
  17 C       6.2877413    4.7478453    5.1795962    4.8321115    5.0100302  
  18 C       5.4027648    4.4154313    4.7096130    4.6192640    4.5965338  
  19 C       7.0937611    4.8369589    5.5888751    5.3804648    5.8801192  
  20 C       1.3695745 *  2.3656083 *  1.3847330 *  2.4481586 *  2.6442446 *
  21 C       0.0000000    3.6362824    2.4446682 *  2.9200195 *  2.4083311 *
  22 C       3.6362824    0.0000000    1.3750067 *  2.3342731 *  3.4751949  
  23 C       2.4446682 *  1.3750067 *  0.0000000    1.4362296 *  2.3620757 *
  24 C       2.9200195 *  2.3342731 *  1.4362296 *  0.0000000    1.4451221 *
  25 C       2.4083311 *  3.4751949    2.3620757 *  1.4451221 *  0.0000000  
  26 C       1.3748101 *  4.0312754    2.7830346 *  2.5343147 *  1.4139708 *
  27 C       3.5194799    4.1732508    3.3826298    2.3270136 *  1.3969836 *
  28 C       4.8428017    1.3643784 *  2.4510866 *  2.7923342 *  4.1118510  
  29 C       6.5756355    3.6276105    4.3213499    3.8597736    5.0342127  
  30 C       5.2392014    2.4189787 *  2.9461538 *  2.5608837 *  3.8671419  
  31 C       4.3424238    2.6450305 *  2.4725096 *  1.4527611 *  2.5612264 *
  32 C       5.1104172    3.7999511    3.6484449    2.4755579 *  2.9485987 *
  33 C       4.6211582    4.2164184    3.8066456    2.6525133 *  2.4228522 *
  34 C       6.9682298    3.5370284    4.7363132    4.8880299    6.0376049  
  35 C       5.7812894    2.2714404 *  3.5627500    3.9941480    5.1683031  
  36 C       7.4686082    4.1753193    5.1689710    4.9805704    6.1574866  
  37 C       8.3685143    5.3499105    6.3552021    6.1595125    7.0514299  
  38 C       7.5725115    4.4309757    5.5693013    5.6547948    6.5971230  
  39 C       1.3664282 *  4.5766871    3.5927415    4.1661021    3.4970547  
  40 C       2.2288748 *  5.4304513    4.4180620    4.6278888    3.5926050  
  41 C       2.1790420 *  5.0950674    3.9869576    3.7805021    2.5112040 *
  42 C       3.7243510    4.8863599    4.1618898    3.4497923    2.3691387 *
  43 C       3.1824548    5.2551867    4.3843976    4.0015258    2.7688319 *
  44 C       7.1185931    4.6263093    5.1147569    4.3445267    5.2371320  
  45 C       6.3750716    4.5205758    4.7162234    3.7279957    4.3041003  
  46 C       8.4448189    5.3502085    6.2758982    5.9256221    6.9383121  
  47 C       8.1944295    5.5250606    6.1946836    5.5516628    6.3914159  
  48 C       7.9504431    5.6413106    6.2235984    5.5552432    6.1438672  
  49 C       7.9780483    5.4372791    6.2314448    5.8571874    6.5025239  
  50 C       5.2997138    4.7980668    4.6208844    3.7482145    3.4545361  
  51 C       6.9833673    5.2166839    5.5204414    4.6708133    5.0304251  
  52 C       6.2845437    5.0141736    5.1974406    4.4626443    4.5306619  

               26 C         27 C         28 C         29 C         30 C     

   1 C       3.4422220    4.5170708    5.8340724    7.5558127    6.5009412  
   2 C       3.0326868    4.6177862    5.3425411    7.3039614    6.1019183  
   3 C       3.1871852    3.4830626    6.3515769    7.5187467    6.6037151  
   4 C       3.1191362    4.2543753    6.6110265    8.1175979    7.0494048  
   5 C       4.4975111    4.6590761    2.2146514 *  4.3476931    3.4139230  
   6 C       3.1728407    4.4276199    4.0889911    6.1920471    4.9880425  
   7 C       4.0151135    4.5564991    3.4609082    5.4909933    4.4942092  
   8 C       3.9040490    4.2335280    5.2519830    6.7695437    5.8996621  
   9 C       5.1208798    4.5034176    3.9433765    5.0584259    4.5993483  
  10 C       4.3642614    4.4354876    4.2024579    5.8049178    5.0235916  
  11 C       6.7927594    5.6411345    3.6113294    3.7894443    4.0381096  
  12 C       5.8745632    5.1493014    3.2195359    4.2210463    3.9872579  
  13 C       5.5197362    5.1465232    2.1325101 *  3.7545284    3.2502520  
  14 C       3.7887279    2.1291182 *  5.2025786    5.5320767    4.9940897  
  15 C       4.2645539    3.2142813    5.2229522    5.8966135    5.3623624  
  16 C       3.8379656    3.6078907    5.7024422    6.8052702    6.0460833  
  17 C       5.8187733    4.1617296    4.4779898    4.3456286    4.4107062  
  18 C       5.0850761    3.9061199    4.5631182    5.1153244    4.8052044  
  19 C       6.7755302    5.2086536    4.2616939    3.8743661    4.2734314  
  20 C       2.3009065 *  3.7389597    3.6615334    5.6419982    4.2992591  
  21 C       1.3748101 *  3.5194799    4.8428017    6.5756355    5.2392014  
  22 C       4.0312754    4.1732508    1.3643784 *  3.6276105    2.4189787 *
  23 C       2.7830346 *  3.3826298    2.4510866 *  4.3213499    2.9461538 *
  24 C       2.5343147 *  2.3270136 *  2.7923342 *  3.8597736    2.5608837 *
  25 C       1.4139708 *  1.3969836 *  4.1118510    5.0342127    3.8671419  
  26 C       0.0000000    2.3781653 *  4.9919644    6.2843396    5.0403550  
  27 C       2.3781653 *  0.0000000    4.5459861    4.9738840    4.1038782  
  28 C       4.9919644    4.5459861    0.0000000    2.3702278 *  1.3975856 *
  29 C       6.2843396    4.9738840    2.3702278 *  0.0000000    1.4136490 *
  30 C       5.0403550    4.1038782    1.3975856 *  1.4136490 *  0.0000000  
  31 C       3.8633964    2.7828392 *  2.3282307 *  2.5284725 *  1.4426828 *
  32 C       4.3263025    2.4425857 *  3.3790086    2.7695022 *  2.3585509 *
  33 C       3.6343040    1.3591322 *  4.1763138    4.0203272    3.4765346  
  34 C       7.0080174    6.0159690    2.4071267 *  2.2811803 *  2.7673013 *
  35 C       5.9839013    5.3779211    1.3890171 *  2.6347185 *  2.3642038 *
  36 C       7.3151215    6.0501397    2.8540245 *  1.4019665 *  2.5215977 *
  37 C       8.1348390    6.5962306    4.2771818    3.1175967    4.1306679  
  38 C       7.5314337    6.3246657    3.5034656    3.1672744    3.7902505  
  39 C       2.2483601 *  4.3260961    5.8496024    7.6651968    6.3807229  
  40 C       2.3041218 *  4.0657259    6.5868521    8.1312878    6.9344748  
  41 C       1.4083803 *  2.8410247 *  6.0761552    7.3092291    6.1633147  
  42 C       2.6536842 *  1.3884276 *  5.4091093    5.9841346    5.1836383  
  43 C       2.2983790 *  2.4054382 *  6.0538517    7.0131050    6.0567464  
  44 C       6.5795509    4.8284311    3.5244289    1.3799962 *  2.4165886 *
  45 C       5.6512068    3.6546739    3.7445401    2.2966800 *  2.6532893 *
  46 C       8.1481650    6.5706155    4.0968287    2.3168608 *  3.6168470  
  47 C       7.6865815    5.8430221    4.3651907    2.2767508 *  3.5305494  
  48 C       7.3609893    5.3633409    4.7008181    3.0774528    4.0073617  
  49 C       7.5780194    5.8167732    4.5524934    3.4288920    4.2625762  
  50 C       4.3988922    2.2330408 *  4.7369964    4.5281174    4.2386705  
  51 C       6.2470919    4.1100002    4.5128598    3.2157528    3.7197467  
  52 C       5.5463767    3.4696967    4.6481899    4.0454546    4.1548068  

               31 C         32 C         33 C         34 C         35 C     

   1 C       5.8432461    6.1942805    5.3877820    7.2255198    6.1474293  
   2 C       5.4977428    6.1453228    5.5510606    7.0560977    5.8390868  
   3 C       5.6487711    5.5450370    4.3963373    7.6084209    6.7531588  
   4 C       6.1467642    6.3297602    5.3170589    8.1003160    7.0781957  
   5 C       3.6860395    4.5388281    4.7120944    3.5522076    2.2761286 *
   6 C       4.6104303    5.4399146    5.1257450    5.8520336    4.5826351  
   7 C       4.4027342    5.1069371    4.9104145    4.7732865    3.5762800  
   8 C       5.3828185    5.5600997    4.7918410    6.2681065    5.3357216  
   9 C       4.5940412    4.6429522    4.3337822    4.1155446    3.5049612  
  10 C       4.8246825    5.1363009    4.6881866    5.0101900    4.0729290  
  11 C       4.6642775    4.5848999    4.8905150    2.2978224 *  2.5761134 *
  12 C       4.4239792    4.6118975    4.7219068    2.8298125 *  2.3749946 *
  13 C       3.8822943    4.4950641    4.8423973    2.4195637 *  1.3809418 *
  14 C       4.0696460    3.3762021    2.1614173 *  5.9816313    5.5263136  
  15 C       4.7099318    4.2680109    3.2923068    5.7964724    5.2738787  
  16 C       5.3220937    5.1580271    4.1382909    6.6085806    5.8537248  
  17 C       4.3064908    3.6280448    3.3554667    4.0650769    4.1142758  
  18 C       4.5325864    4.1392409    3.5713980    4.6437063    4.2919606  
  19 C       4.6193660    4.1117407    4.2730976    3.1215872    3.5425852  
  20 C       3.7189257    4.7072388    4.5148937    5.8060568    4.5537360  
  21 C       4.3424238    5.1104172    4.6211582    6.9682298    5.7812894  
  22 C       2.6450305 *  3.7999511    4.2164184    3.5370284    2.2714404 *
  23 C       2.4725096 *  3.6484449    3.8066456    4.7363132    3.5627500  
  24 C       1.4527611 *  2.4755579 *  2.6525133 *  4.8880299    3.9941480  
  25 C       2.5612264 *  2.9485987 *  2.4228522 *  6.0376049    5.1683031  
  26 C       3.8633964    4.3263025    3.6343040    7.0080174    5.9839013  
  27 C       2.7828392 *  2.4425857 *  1.3591322 *  6.0159690    5.3779211  
  28 C       2.3282307 *  3.3790086    4.1763138    2.4071267 *  1.3890171 *
  29 C       2.5284725 *  2.7695022 *  4.0203272    2.2811803 *  2.6347185 *
  30 C       1.4426828 *  2.3585509 *  3.4765346    2.7673013 *  2.3642038 *
  31 C       0.0000000    1.4358820 *  2.3359812 *  3.9826304    3.4314991  
  32 C       1.4358820 *  0.0000000    1.3763939 *  4.3435529    4.1265735  
  33 C       2.3359812 *  1.3763939 *  0.0000000    5.2140765    4.8523719  
  34 C       3.9826304    4.3435529    5.2140765    0.0000000    1.3490312 *
  35 C       3.4314991    4.1265735    4.8523719    1.3490312 *  0.0000000  
  36 C       3.7746385    3.9575655    5.0672385    1.3841940 *  2.3976618 *
  37 C       5.0428732    4.7535046    5.4966891    2.1874333 *  3.3741813  
  38 C       4.7653324    4.7791518    5.4316292    1.3768918 *  2.3430529 *
  39 C       5.5305651    6.1615525    5.4835129    7.7985548    6.5938139  
  40 C       5.9107458    6.2481051    5.3138724    8.3902483    7.2962005  
  41 C       4.9770095    5.1566925    4.1583040    7.8792641    6.8954861  
  42 C       4.0002904    3.5590758    2.2617577 *  6.6758146    6.0244995  
  43 C       4.8960071    4.7341090    3.5283699    7.5117836    6.6871080  
  44 C       2.9198256 *  2.4346481 *  3.6286180    3.1627429    3.7098473  
  45 C       2.4549838 *  1.3851720 *  2.3652544 *  3.8867548    4.1144379  
  46 C       4.6327688    4.3976144    5.4111648    2.3030226 *  3.5163174  
  47 C       4.1804255    3.5855338    4.5704015    3.1791942    4.1208684  
  48 C       4.3437392    3.4643889    4.0684145    3.5934344    4.3781707  
  49 C       4.8001283    4.1843638    4.6676889    3.0023700    3.8587051  
  50 C       3.4126651    2.3756216 *  1.4011401 *  5.2654926    5.0498094  
  51 C       3.5927434    2.4433655 *  2.7916181 *  4.1140213    4.5133422  
  52 C       3.7699666    2.6991437 *  2.3823371 *  4.5293067    4.6319063  

               36 C         37 C         38 C         39 C         40 C     

   1 C       8.0678347    8.2511424    7.3325562    2.1807526 *  2.2421028 *
   2 C       7.8814679    8.3953055    7.4091777    1.3714305 *  2.2555638 *
   3 C       8.1923820    8.2008533    7.5733308    3.1287628    2.2766227 *
   4 C       8.7878253    8.9793871    8.2013907    2.1502206 *  1.3656064 *
   5 C       4.5527641    5.2313600    4.1066747    4.5340008    5.3525499  
   6 C       6.7056491    7.3706958    6.3330809    2.3032157 *  3.3237898  
   7 C       5.7743879    6.2051462    5.0995618    3.5490775    4.3195327  
   8 C       7.1443605    7.0787072    6.1923756    3.3090405    3.3167498  
   9 C       5.0817906    4.6939077    3.7806733    5.2429329    5.4711911  
  10 C       6.0067729    5.9642872    4.9573830    4.0041082    4.3559179  
  11 C       3.2309797    2.3169265 *  1.3922617 *  7.3529843    7.6889690  
  12 C       3.9540227    3.6066397    2.4997511 *  6.1408599    6.5658989  
  13 C       3.6031903    4.0042472    2.7989753 *  5.7688574    6.4459654  
  14 C       6.2365843    6.0783149    5.8207313    4.9804499    4.4928736  
  15 C       6.3438429    5.9537186    5.4758750    4.8309802    4.4543354  
  16 C       7.2905553    7.0738333    6.4153789    3.8349966    3.3801967  
  17 C       4.4470536    3.5874973    3.4182827    6.7298733    6.6535474  
  18 C       5.2984754    4.6835653    4.1511115    5.6214585    5.5265337  
  19 C       3.5578340    2.3018653 *  2.1818079 *  7.6208888    7.7318247  
  20 C       6.4053369    7.3884426    6.4965485    2.3090046 *  3.3375761  
  21 C       7.4686082    8.3685143    7.5725115    1.3664282 *  2.2288748 *
  22 C       4.1753193    5.3499105    4.4309757    4.5766871    5.4304513  
  23 C       5.1689710    6.3552021    5.5693013    3.5927415    4.4180620  
  24 C       4.9805704    6.1595125    5.6547948    4.1661021    4.6278888  
  25 C       6.1574866    7.0514299    6.5971230    3.4970547    3.5926050  
  26 C       7.3151215    8.1348390    7.5314337    2.2483601 *  2.3041218 *
  27 C       6.0501397    6.5962306    6.3246657    4.3260961    4.0657259  
  28 C       2.8540245 *  4.2771818    3.5034656    5.8496024    6.5868521  
  29 C       1.4019665 *  3.1175967    3.1672744    7.6651968    8.1312878  
  30 C       2.5215977 *  4.1306679    3.7902505    6.3807229    6.9344748  
  31 C       3.7746385    5.0428732    4.7653324    5.5305651    5.9107458  
  32 C       3.9575655    4.7535046    4.7791518    6.1615525    6.2481051  
  33 C       5.0672385    5.4966891    5.4316292    5.4835129    5.3138724  
  34 C       1.3841940 *  2.1874333 *  1.3768918 *  7.7985548    8.3902483  
  35 C       2.3976618 *  3.3741813    2.3430529 *  6.5938139    7.2962005  
  36 C       0.0000000    2.1207820 *  2.1867484 *  8.4448749    8.9614766  
  37 C       2.1207820 *  0.0000000    1.3480837 *  9.1218858    9.4466045  
  38 C       2.1867484 *  1.3480837 *  0.0000000    8.2504332    8.6933741  
  39 C       8.4448749    9.1218858    8.2504332    0.0000000    1.3559199 *
  40 C       8.9614766    9.4466045    8.6933741    1.3559199 *  0.0000000  
  41 C       8.2644857    8.7994733    8.2041598    2.1668396 *  1.3771389 *
  42 C       6.8905468    7.0874931    6.7557938    4.0941549    3.4897286  
  43 C       7.8850442    8.1207378    7.6260087    3.1574583    2.2765655 *
  44 C       2.1564345 *  3.0480863    3.5606245    8.1712405    8.4244755  
  45 C       3.2435325    3.7510547    4.1153243    7.3686651    7.4471944  
  46 C       1.3840341 *  1.3648085 *  2.2756967 *  9.3639414    9.7338070  
  47 C       2.1734345 *  2.1649360 *  3.1326559    9.1474970    9.3631637  
  48 C       3.0432345    2.2383313 *  3.1320297    8.7601529    8.8190325  
  49 C       2.9426102 *  1.3718118 *  2.1005933 *  8.6609693    8.7996301  
  50 C       5.2733981    5.1441759    5.1222862    5.9005395    5.5844840  
  51 C       3.6844346    3.3337886    3.8535715    7.7857712    7.7242591  
  52 C       4.4980254    3.9755042    4.1392791    6.8974700    6.7100229  

               41 C         42 C         43 C         44 C         45 C     

   1 C       2.9687213 *  3.8362926    2.9983135 *  7.9511534    7.1352162  
   2 C       3.0215332    4.3137656    3.5459056    7.8880499    7.1941354  
   3 C       2.2069853 *  2.3285299 *  1.3816932 *  7.5554572    6.4739392  
   4 C       2.1368499 *  3.3630269    2.1859245 *  8.3508583    7.3668900  
   5 C       5.2579657    5.0099585    5.2467595    5.2462450    5.0976743  
   6 C       3.6655772    4.4560180    4.0775603    6.9235732    6.4083947  
   7 C       4.4802474    4.5694481    4.4929447    6.2199062    5.8217123  
   8 C       3.5882958    3.5290637    3.1304734    7.0790582    6.2964023  
   9 C       5.3027497    4.2602106    4.6392024    5.3608336    4.8834560  
  10 C       4.4663046    4.0934048    4.0675324    6.2634346    5.7053164  
  11 C       7.2795919    5.8273792    6.6024392    4.0519197    4.1520183  
  12 C       6.3259473    5.2350842    5.7790225    4.7082678    4.5968711  
  13 C       6.2315157    5.5044765    5.9770618    4.6118341    4.6744194  
  14 C       3.6127136    1.3853521 *  2.4347953 *  5.1979616    3.9967345  
  15 C       3.9777628    2.3786977 *  2.8498595 *  5.7520033    4.7492867  
  16 C       3.2698924    2.5818097 *  2.3252981 *  6.8450845    5.8647575  
  17 C       6.0117906    4.0615146    5.0209812    4.0005499    3.3401329  
  18 C       5.0979656    3.4903595    4.1275529    5.0373865    4.2900455  
  19 C       7.1453006    5.3234198    6.2755793    3.6473363    3.4837574  
  20 C       3.2760870    4.1415435    3.9235971    6.3732003    5.8393936  
  21 C       2.1790420 *  3.7243510    3.1824548    7.1185931    6.3750716  
  22 C       5.0950674    4.8863599    5.2551867    4.6263093    4.5205758  
  23 C       3.9869576    4.1618898    4.3843976    5.1147569    4.7162234  
  24 C       3.7805021    3.4497923    4.0015258    4.3445267    3.7279957  
  25 C       2.5112040 *  2.3691387 *  2.7688319 *  5.2371320    4.3041003  
  26 C       1.4083803 *  2.6536842 *  2.2983790 *  6.5795509    5.6512068  
  27 C       2.8410247 *  1.3884276 *  2.4054382 *  4.8284311    3.6546739  
  28 C       6.0761552    5.4091093    6.0538517    3.5244289    3.7445401  
  29 C       7.3092291    5.9841346    7.0131050    1.3799962 *  2.2966800 *
  30 C       6.1633147    5.1836383    6.0567464    2.4165886 *  2.6532893 *
  31 C       4.9770095    4.0002904    4.8960071    2.9198256 *  2.4549838 *
  32 C       5.1566925    3.5590758    4.7341090    2.4346481 *  1.3851720 *
  33 C       4.1583040    2.2617577 *  3.5283699    3.6286180    2.3652544 *
  34 C       7.8792641    6.6758146    7.5117836    3.1627429    3.8867548  
  35 C       6.8954861    6.0244995    6.6871080    3.7098473    4.1144379  
  36 C       8.2644857    6.8905468    7.8850442    2.1564345 *  3.2435325  
  37 C       8.7994733    7.0874931    8.1207378    3.0480863    3.7510547  
  38 C       8.2041598    6.7557938    7.6260087    3.5606245    4.1153243  
  39 C       2.1668396 *  4.0941549    3.1574583    8.1712405    7.3686651  
  40 C       1.3771389 *  3.4897286    2.2765655 *  8.4244755    7.4471944  
  41 C       0.0000000    2.3897739 *  1.3785415 *  7.4600845    6.3968271  
  42 C       2.3897739 *  0.0000000    1.3504628 *  5.7794441    4.5524299  
  43 C       1.3785415 *  1.3504628 *  0.0000000    6.9709513    5.8076180  
  44 C       7.4600845    5.7794441    6.9709513    0.0000000    1.3626526 *
  45 C       6.3968271    4.5524299    5.8076180    1.3626526 *  0.0000000  
  46 C       8.9693768    7.2996819    8.4051317    2.2142243 *  3.3099588  
  47 C       8.4529759    6.6024211    7.8160433    1.3699991 *  2.2957343 *
  48 C       7.9222848    5.8755380    7.1044336    2.1002726 *  2.2018533 *
  49 C       8.0830362    6.1572984    7.2503530    2.9485818 *  3.1582414  
  50 C       4.5736160    2.2931629 *  3.5764132    3.9819291    2.7295770 *
  51 C       6.7393769    4.6137579    5.8930166    2.2030742 *  1.4207794 *
  52 C       5.8078396    3.6000265    4.8118828    3.3554985    2.3540905 *

               46 C         47 C         48 C         49 C         50 C     

   1 C       8.7927461    8.6558108    8.0312594    7.6828276    5.2775576  
   2 C       8.7862653    8.7242576    8.3017567    8.0022161    5.7534202  
   3 C       8.6902267    8.2499681    7.4400480    7.3412125    4.1082283  
   4 C       9.4464620    9.1251192    8.4342682    8.2644887    5.2449921  
   5 C       5.5780199    5.8876299    5.7811226    5.2745129    4.9115423  
   6 C       7.6996107    7.7566509    7.4807115    7.1421396    5.4275891  
   7 C       6.6846060    6.8654718    6.5430538    6.0249064    4.9710816  
   8 C       7.7377440    7.6276483    6.9101523    6.4590364    4.4174292  
   9 C       5.5181521    5.6084713    4.9134432    4.1889799    3.7446741  
  10 C       6.6555069    6.7311433    6.1356046    5.5339529    4.3530325  
  11 C       3.3615092    3.8138646    3.3390147    2.2284841 *  4.3547639  
  12 C       4.4493949    4.8204586    4.3683200    3.4679062    4.3001296  
  13 C       4.5006655    4.9850997    4.8863981    4.1860133    4.8257028  
  14 C       6.4560731    5.7812387    4.8687064    5.0328904    1.3628719 *
  15 C       6.5882864    6.1643904    5.1965105    4.9790582    2.3928306 *
  16 C       7.7054343    7.3715988    6.4965278    6.2206146    3.5537300  
  17 C       4.3430141    3.9859179    2.9043199 *  2.4914603 *  2.3200557 *
  18 C       5.4706800    5.2383019    4.2803236    3.7882353    2.6186333 *
  19 C       3.2951342    3.2837393    2.3748907 *  1.3904406 *  3.4907372  
  20 C       7.4711119    7.3962514    7.2668467    7.1710635    5.1676191  
  21 C       8.4448189    8.1944295    7.9504431    7.9780483    5.2997138  
  22 C       5.3502085    5.5250606    5.6413106    5.4372791    4.7980668  
  23 C       6.2758982    6.1946836    6.2235984    6.2314448    4.6208844  
  24 C       5.9256221    5.5516628    5.5552432    5.8571874    3.7482145  
  25 C       6.9383121    6.3914159    6.1438672    6.5025239    3.4545361  
  26 C       8.1481650    7.6865815    7.3609893    7.5780194    4.3988922  
  27 C       6.5706155    5.8430221    5.3633409    5.8167732    2.2330408 *
  28 C       4.0968287    4.3651907    4.7008181    4.5524934    4.7369964  
  29 C       2.3168608 *  2.2767508 *  3.0774528    3.4288920    4.5281174  
  30 C       3.6168470    3.5305494    4.0073617    4.2625762    4.2386705  
  31 C       4.6327688    4.1804255    4.3437392    4.8001283    3.4126651  
  32 C       4.3976144    3.5855338    3.4643889    4.1843638    2.3756216 *
  33 C       5.4111648    4.5704015    4.0684145    4.6676889    1.4011401 *
  34 C       2.3030226 *  3.1791942    3.5934344    3.0023700    5.2654926  
  35 C       3.5163174    4.1208684    4.3781707    3.8587051    5.0498094  
  36 C       1.3840341 *  2.1734345 *  3.0432345    2.9426102 *  5.2733981  
  37 C       1.3648085 *  2.1649360 *  2.2383313 *  1.3718118 *  5.1441759  
  38 C       2.2756967 *  3.1326559    3.1320297    2.1005933 *  5.1222862  
  39 C       9.3639414    9.1474970    8.7601529    8.6609693    5.9005395  
  40 C       9.7338070    9.3631637    8.8190325    8.7996301    5.5844840  
  41 C       8.9693768    8.4529759    7.9222848    8.0830362    4.5736160  
  42 C       7.2996819    6.6024211    5.8755380    6.1572984    2.2931629 *
  43 C       8.4051317    7.8160433    7.1044336    7.2503530    3.5764132  
  44 C       2.2142243 *  1.3699991 *  2.1002726 *  2.9485818 *  3.9819291  
  45 C       3.3099588    2.2957343 *  2.2018533 *  3.1582414    2.7295770 *
  46 C       0.0000000    1.3546106 *  2.2603397 *  2.2144982 *  5.3649592  
  47 C       1.3546106 *  0.0000000    1.3678382 *  2.1544529 *  4.5463004  
  48 C       2.2603397 *  1.3678382 *  0.0000000    1.3650982 *  3.6618272  
  49 C       2.2144982 *  2.1544529 *  1.3650982 *  0.0000000    4.0724306  
  50 C       5.3649592    4.5463004    3.6618272    4.0724306    0.0000000  
  51 C       3.3300507    2.3032755 *  1.3705404 *  2.3026044 *  2.3862157 *
  52 C       4.3293225    3.5500640    2.4623974 *  2.7883115 *  1.3652060 *

               51 C         52 C     

   1 C       7.1652127    6.0517508  
   2 C       7.4724941    6.5399802  
   3 C       6.3563430    5.1228176  
   4 C       7.4030955    6.2406883  
   5 C       5.4451399    5.0000572  
   6 C       6.7886931    6.0321899  
   7 C       6.0249265    5.2847576  
   8 C       6.1366363    4.9772350  
   9 C       4.5211806    3.5956690  
  10 C       5.5777866    4.5985468  
  11 C       3.6716209    3.4688997  
  12 C       4.3330952    3.8164084  
  13 C       4.8303010    4.5384784  
  14 C       3.6819609    2.4551336 *
  15 C       4.2657016    2.9299405 *
  16 C       5.5610241    4.2713543  
  17 C       2.4269821 *  1.4438483 *
  18 C       3.6608201    2.4704263 *
  19 C       2.6118822 *  2.3580414 *
  20 C       6.4804297    5.9050590  
  21 C       6.9833673    6.2845437  
  22 C       5.2166839    5.0141736  
  23 C       5.5204414    5.1974406  
  24 C       4.6708133    4.4626443  
  25 C       5.0304251    4.5306619  
  26 C       6.2470919    5.5463767  
  27 C       4.1100002    3.4696967  
  28 C       4.5128598    4.6481899  
  29 C       3.2157528    4.0454546  
  30 C       3.7197467    4.1548068  
  31 C       3.5927434    3.7699666  
  32 C       2.4433655 *  2.6991437 *
  33 C       2.7916181 *  2.3823371 *
  34 C       4.1140213    4.5293067  
  35 C       4.5133422    4.6319063  
  36 C       3.6844346    4.4980254  
  37 C       3.3337886    3.9755042  
  38 C       3.8535715    4.1392791  
  39 C       7.7857712    6.8974700  
  40 C       7.7242591    6.7100229  
  41 C       6.7393769    5.8078396  
  42 C       4.6137579    3.6000265  
  43 C       5.8930166    4.8118828  
  44 C       2.2030742 *  3.3554985  
  45 C       1.4207794 *  2.3540905 *
  46 C       3.3300507    4.3293225  
  47 C       2.3032755 *  3.5500640  
  48 C       1.3705404 *  2.4623974 *
  49 C       2.3026044 *  2.7883115 *
  50 C       2.3862157 *  1.3652060 *
  51 C       0.0000000    1.3974816 *
  52 C       1.3974816 *  0.0000000  

  * ... LESS THAN  3.000


 TOTAL NUMBER OF BASIS SET SHELLS             =   52
 NUMBER OF CARTESIAN GAUSSIAN BASIS FUNCTIONS =  208
 NUMBER OF ELECTRONS                          =  208
 CHARGE OF MOLECULE                           =    0
 SPIN MULTIPLICITY                            =    1
 NUMBER OF OCCUPIED ORBITALS (ALPHA)          =  104
 NUMBER OF OCCUPIED ORBITALS (BETA )          =  104
 TOTAL NUMBER OF ATOMS                        =   52
 THE NUCLEAR REPULSION ENERGY IS     6820.9515234324

 THE PARAMETERS USED IN THIS CALCULATION ARE DESCRIBED IN:

  C: (PM3): J. J. P. STEWART, J. COMP. CHEM. 10, 209 (1989).                    

 THERE ARE   52 HEAVY AND    0 LIGHT ATOMS,
 YIELDING A TOTAL OF    132600 MOPAC 2E- INTEGRALS.

     $CONTRL OPTIONS
     ---------------
 SCFTYP=RHF          RUNTYP=OPTIMIZE     EXETYP=RUN     
 MPLEVL=       0     CITYP =NONE         CCTYP =NONE         VBTYP =NONE    
 DFTTYP=NONE         TDDFT =NONE    
 MULT  =       1     ICHARG=       0     NZVAR =       0     COORD =UNIQUE  
 PP    =NONE         RELWFN=NONE         LOCAL =NONE         NUMGRD=       F
 ISPHER=      -1     NOSYM =       0     MAXIT =     200     UNITS =ANGS    
 PLTORB=       F     MOLPLT=       F     AIMPAC=       F     FRIEND=        
 NPRINT=       7     IREST =       0     GEOM  =INPUT   
 NORMF =       0     NORMP =       0     ITOL  =      20     ICUT  =       9
 INTTYP=BEST         GRDTYP=BEST         QMTTOL= 1.0E-06

     $SYSTEM OPTIONS
     ---------------
  REPLICATED MEMORY=    10000000 WORDS (ON EVERY NODE).
 DISTRIBUTED MEMDDI=           0 MILLION WORDS IN AGGREGATE,
 MEMDDI DISTRIBUTED OVER   2 PROCESSORS IS           0 WORDS/PROCESSOR.
 TOTAL MEMORY REQUESTED ON EACH PROCESSOR=    10000000 WORDS.
 TIMLIM=      525600.00 MINUTES, OR     365.0 DAYS.
 PARALL= T  BALTYP=  DLB     KDIAG=    0  COREFL= F
 MXSEQ2=     300 MXSEQ3=     150  mem10=         0  mem22=         0

          ----------------
          PROPERTIES INPUT
          ----------------

     MOMENTS            FIELD           POTENTIAL          DENSITY
 IEMOM =       1   IEFLD =       0   IEPOT =       0   IEDEN =       0
 WHERE =COMASS     WHERE =NUCLEI     WHERE =NUCLEI     WHERE =NUCLEI  
 OUTPUT=BOTH       OUTPUT=BOTH       OUTPUT=BOTH       OUTPUT=BOTH    
 IEMINT=       0   IEFINT=       0                     IEDINT=       0
                                                       MORB  =       0
          EXTRAPOLATION IN EFFECT
          SOSCF IN EFFECT
 ORBITAL PRINTING OPTION: NPREO=     1   208     2     1

     -------------------------------
     INTEGRAL TRANSFORMATION OPTIONS
     -------------------------------
     NWORD  =            0
     CUTTRF = 1.0E-09     MPTRAN =       0
     DIRTRF =       T     AOINTS =DUP     

          ----------------------
          INTEGRAL INPUT OPTIONS
          ----------------------
 NOPK  =       1 NORDER=       0 SCHWRZ=       T

     ------------------------------------------
     THE POINT GROUP IS C1 , NAXIS= 0, ORDER= 1
     ------------------------------------------

     DIMENSIONS OF THE SYMMETRY SUBSPACES ARE
 A   =  208

 ..... DONE SETTING UP THE RUN .....
 CPU     0: STEP CPU TIME=     0.00 TOTAL CPU TIME=          0.0 (      0.0 MIN)
 TOTAL WALL CLOCK TIME=          0.0 SECONDS, CPU UTILIZATION IS     0.00%


          -----------------------------
          STATIONARY POINT LOCATION RUN
          -----------------------------

 OBTAINING INITIAL HESSIAN, HESS=GUESS   
 CARTESIAN COORDINATE OPTIMIZATION USING BADGER'S RULE FORCE CONSTANT GUESS

          PARAMETERS CONTROLLING GEOMETRY SEARCH ARE
          METHOD =QA                  UPHESS =BFGS    
          NNEG   =         0          NFRZ   =         0
          NSTEP  =       100          IFOLOW =         1
          HESS   =GUESS               RESTAR =         F
          IHREP  =         0          HSSEND =         F
          NPRT   =         0          NPUN   =         0
          OPTTOL = 1.000E-03          RMIN   = 1.500E-03
          RMAX   = 1.000E-01          RLIM   = 7.000E-02
          DXMAX  = 3.000E-01          PURIFY =         F
          MOVIE  =         F          TRUPD  =         T
          TRMAX  = 5.000E-01          TRMIN  = 5.000E-02
          ITBMAT =         5          STPT   =         F
          STSTEP = 1.000E-02          PROJCT=          T

 BEGINNING GEOMETRY SEARCH POINT NSERCH=   0 ...

 COORDINATES OF ALL ATOMS ARE (ANGS)
   ATOM   CHARGE       X              Y              Z
 ------------------------------------------------------------
 C           6.0   3.7587000000  -0.7618000000  -1.3766000000
 C           6.0   3.7945000000  -1.6287000000  -0.3260000000
 C           6.0   3.5485000000   1.3139000000  -1.2510000000
 C           6.0   4.4757000000   0.3457000000  -1.0216000000
 C           6.0   0.2541000000  -2.4285000000  -0.1666000000
 C           6.0   2.5940000000  -2.1572000000   0.0395000000
 C           6.0   1.4534000000  -2.1773000000  -0.7660000000
 C           6.0   2.5396000000  -0.4718000000  -1.9681000000
 C           6.0   0.0653000000  -0.7152000000  -2.1637000000
 C           6.0   1.3682000000  -1.2300000000  -1.8495000000
 C           6.0  -2.4111000000  -0.9088000000  -1.9278000000
 C           6.0  -1.1232000000  -1.4266000000  -1.8294000000
 C           6.0  -0.9750000000  -2.2860000000  -0.7256000000
 C           6.0   0.9838000000   2.2921000000  -0.7432000000
 C           6.0   1.1365000000   1.4403000000  -1.8594000000
 C           6.0   2.4187000000   0.9146000000  -1.9607000000
 C           6.0  -1.3723000000   1.2451000000  -1.8318000000
 C           6.0  -0.0699000000   0.7410000000  -2.1687000000
 C           6.0  -2.5413000000   0.4800000000  -1.9455000000
 C           6.0   2.3854000000  -1.7005000000   1.3673000000
 C           6.0   3.4562000000  -0.8766000000   1.5916000000
 C           6.0   0.0654000000  -2.1260000000   1.1866000000
 C           6.0   1.0967000000  -1.4739000000   1.8205000000
 C           6.0   0.7099000000  -0.1734000000   2.2915000000
 C           6.0   1.7676000000   0.7798000000   2.0444000000
 C           6.0   3.1155000000   0.4414000000   1.7837000000
 C           6.0   1.2689000000   1.8676000000   1.3236000000
 C           6.0  -1.2705000000  -1.9029000000   1.3513000000
 C           6.0  -3.1038000000  -0.4603000000   1.7707000000
 C           6.0  -1.7618000000  -0.8007000000   2.0563000000
 C           6.0  -0.7051000000   0.1555000000   2.2808000000
 C           6.0  -1.0930000000   1.4441000000   1.7800000000
 C           6.0  -0.0594000000   2.0883000000   1.1388000000
 C           6.0  -3.2507000000  -1.8698000000  -0.0169000000
 C           6.0  -1.9838000000  -2.2698000000   0.2173000000
 C           6.0  -3.9756000000  -1.1178000000   0.8914000000
 C           6.0  -4.4755000000  -0.3652000000  -1.0273000000
 C           6.0  -3.5512000000  -1.3223000000  -1.2440000000
 C           6.0   4.4653000000  -0.9746000000   0.6755000000
 C           6.0   4.8581000000   0.2636000000   0.2868000000
 C           6.0   3.9789000000   1.1244000000   0.9053000000
 C           6.0   1.9936000000   2.2551000000   0.2045000000
 C           6.0   3.2674000000   1.8640000000  -0.0151000000
 C           6.0  -3.4471000000   0.8607000000   1.5670000000
 C           6.0  -2.3806000000   1.6732000000   1.3236000000
 C           6.0  -4.8621000000  -0.2508000000   0.2766000000
 C           6.0  -4.4695000000   0.9865000000   0.6638000000
 C           6.0  -3.8269000000   1.6627000000  -0.3366000000
 C           6.0  -3.7712000000   0.7634000000  -1.3621000000
 C           6.0  -0.2548000000   2.4565000000  -0.1989000000
 C           6.0  -2.6162000000   2.1948000000   0.0232000000
 C           6.0  -1.4702000000   2.2251000000  -0.7760000000

          ********************
          1 ELECTRON INTEGRALS
          ********************

          **************************
          1 AND 2 ELECTRON INTEGRALS
          **************************

 MOPAC ONE- AND TWO-ELECTRON INTEGRALS REQUIRE    176072 WORDS.
 ...... END OF ONE- AND TWO-ELECTRON INTEGRALS......
 CPU     0: STEP CPU TIME=     0.00 TOTAL CPU TIME=          0.0 (      0.0 MIN)
 TOTAL WALL CLOCK TIME=          0.0 SECONDS, CPU UTILIZATION IS     0.00%
 ...... END OF ONE-ELECTRON INTEGRALS ......
 CPU     0: STEP CPU TIME=     0.00 TOTAL CPU TIME=          0.0 (      0.0 MIN)
 TOTAL WALL CLOCK TIME=          0.0 SECONDS, CPU UTILIZATION IS     0.00%

          -------------
          GUESS OPTIONS
          -------------
          GUESS =HUCKEL            NORB  =       0          NORDER=       0
          MIX   =       F          PRTMO =       F          PUNMO =       F
          TOLZ  = 1.0E-08          TOLE  = 1.0E-05
          SYMDEN=       F          PURIFY=       F

 INITIAL GUESS ORBITALS GENERATED BY HUCKEL   ROUTINE.

 SYMMETRIES FOR INITIAL GUESS ORBITALS FOLLOW.   BOTH SET(S).
   104 ORBITALS ARE OCCUPIED (    0 CORE ORBITALS).
     1=A        2=A        3=A        4=A        5=A        6=A        7=A   
     8=A        9=A       10=A       11=A       12=A       13=A       14=A   
    15=A       16=A       17=A       18=A       19=A       20=A       21=A   
    22=A       23=A       24=A       25=A       26=A       27=A       28=A   
    29=A       30=A       31=A       32=A       33=A       34=A       35=A   
    36=A       37=A       38=A       39=A       40=A       41=A       42=A   
    43=A       44=A       45=A       46=A       47=A       48=A       49=A   
    50=A       51=A       52=A       53=A       54=A       55=A       56=A   
    57=A       58=A       59=A       60=A       61=A       62=A       63=A   
    64=A       65=A       66=A       67=A       68=A       69=A       70=A   
    71=A       72=A       73=A       74=A       75=A       76=A       77=A   
    78=A       79=A       80=A       81=A       82=A       83=A       84=A   
    85=A       86=A       87=A       88=A       89=A       90=A       91=A   
    92=A       93=A       94=A       95=A       96=A       97=A       98=A   
    99=A      100=A      101=A      102=A      103=A      104=A      105=A   
   106=A      107=A      108=A      109=A      110=A      111=A      112=A   
   113=A      114=A   
 ...... END OF INITIAL ORBITAL SELECTION ......
 CPU     0: STEP CPU TIME=     0.02 TOTAL CPU TIME=          0.0 (      0.0 MIN)
 TOTAL WALL CLOCK TIME=          0.0 SECONDS, CPU UTILIZATION IS    48.83%

          --------------------------
               R-PM3 SCF CALCULATION
          --------------------------

     NUCLEAR ENERGY =      2768.0696195613
     MAXIT =  200     NPUNCH=    2
     EXTRAP=T  DAMP=F  SHIFT=F  RSTRCT=F  DIIS=F  DEM=F  SOSCF=T
     DENSITY MATRIX CONV=  2.00E-05
     SOSCF WILL OPTIMIZE   10816 ORBITAL ROTATIONS, SOGTOL=   0.250
     MEMORY REQUIRED FOR RHF ITERS=    482456 WORDS.

                                                                                   NONZERO     BLOCKS
 ITER EX DEM     TOTAL ENERGY        E CHANGE  DENSITY CHANGE     ORB. GRAD      INTEGRALS    SKIPPED
   1  0  0     -222.7682672429  -222.7682672429   0.171054557   0.000000000              0          0
          ---------------START SECOND ORDER SCF---------------
   2  1  0     -224.3031655119    -1.5348982690   0.052417829   0.016578277              0          0
   3  2  0     -224.4397306826    -0.1365651708   0.043893530   0.009886906              0          0
   4  3  0     -224.4627064646    -0.0229757819   0.011796361   0.004965915              0          0
   5  4  0     -224.4674170504    -0.0047105858   0.013207679   0.002284679              0          0
   6  5  0     -224.4691307677    -0.0017137173   0.019921344   0.002138428              0          0
   7  6  0     -224.4704155288    -0.0012847611   0.013141435   0.001333553              0          0
   8  7  0     -224.4710694701    -0.0006539412   0.019520963   0.001714687              0          0
   9  8  0     -224.4718623420    -0.0007928719   0.019328646   0.001319249              0          0
  10  9  0     -224.4723606644    -0.0004983225   0.012778244   0.000845565              0          0
  11 10  0     -224.4726107034    -0.0002500389   0.004061028   0.000452476              0          0
  12 11  0     -224.4726827245    -0.0000720211   0.001784927   0.000268372              0          0
  13 12  0     -224.4727032871    -0.0000205626   0.001820766   0.000141906              0          0
  14 13  0     -224.4727131214    -0.0000098343   0.001236828   0.000105745              0          0
  15 14  0     -224.4727185491    -0.0000054277   0.001190096   0.000078707              0          0
  16 15  0     -224.4727215427    -0.0000029937   0.000909185   0.000078555              0          0
  17 16  0     -224.4727231903    -0.0000016475   0.000816579   0.000058003              0          0
  18 17  0     -224.4727241483    -0.0000009580   0.000534923   0.000040586              0          0
  19 18  0     -224.4727246499    -0.0000005016   0.000258155   0.000024950              0          0
  20 19  0     -224.4727248495    -0.0000001996   0.000104927   0.000016177              0          0
  21 20  0     -224.4727249146    -0.0000000651   0.000079351   0.000010318              0          0
  22 21  0     -224.4727249401    -0.0000000255   0.000074184   0.000008762              0          0
  23 22  0     -224.4727249552    -0.0000000151   0.000085825   0.000006338              0          0
  24 23  0     -224.4727249658    -0.0000000107   0.000081433   0.000003731              0          0
  25 24  0     -224.4727249731    -0.0000000073   0.000061045   0.000002810              0          0
  26 25  0     -224.4727249769    -0.0000000038   0.000027856   0.000001849              0          0
  27 26  0     -224.4727249783    -0.0000000014   0.000009786   0.000001152              0          0

          -----------------
          DENSITY CONVERGED
          -----------------
     TIME TO FORM FOCK OPERATORS=       0.0 SECONDS (       0.0 SEC/ITER)
     FOCK TIME ON FIRST ITERATION=       0.0, LAST ITERATION=       0.0
     TIME TO SOLVE SCF EQUATIONS=       0.2 SECONDS (       0.0 SEC/ITER)

 FINAL R-PM3 ENERGY IS     -224.4727249783 AFTER  27 ITERATIONS

 HEAT OF FORMATION IS      1407.18207 KCAL/MOL
 

          ------------
          EIGENVECTORS
          ------------

                      1          2          3          4          5
                   -1.9448    -1.9005    -1.6975    -1.6840    -1.6231
                     A          A          A          A          A   
    1  C  1  S    0.164935  -0.192232   0.028443  -0.133107   0.089895
    2  C  1  X   -0.012793   0.009266  -0.008987  -0.014957  -0.032086
    3  C  1  Y    0.024779  -0.030465  -0.026115  -0.023237   0.033224
    4  C  1  Z    0.039455  -0.048491   0.015920  -0.043470  -0.020261
    5  C  2  S    0.162059  -0.187955   0.095204  -0.128645  -0.033907
    6  C  2  X   -0.016965   0.013961  -0.029093  -0.012040   0.000149
    7  C  2  Y    0.044226  -0.054613   0.001912  -0.049034   0.001741
    8  C  2  Z    0.014602  -0.017367   0.016402  -0.011153  -0.046183
    9  C  3  S    0.156814  -0.177718  -0.095946  -0.079117   0.132086
   10  C  3  X   -0.009901   0.004301   0.023456  -0.029741  -0.033749
   11  C  3  Y   -0.034983   0.042629  -0.003075   0.037409  -0.028788
   12  C  3  Z    0.030622  -0.036546  -0.020928  -0.021256  -0.010180
   13  C  4  S    0.170619  -0.207131  -0.030326  -0.166271   0.067512
   14  C  4  X   -0.044625   0.051645   0.013316   0.029328  -0.037375
   15  C  4  Y   -0.010377   0.013338  -0.022583   0.018792   0.007779
   16  C  4  Z    0.034003  -0.042918  -0.001771  -0.040756  -0.024373
   17  C  5  S    0.109692  -0.005831   0.263358   0.189897   0.034909
   18  C  5  X   -0.004577  -0.023522  -0.023623  -0.025189  -0.012109
   19  C  5  Y    0.019982  -0.002058   0.038859   0.031292   0.008165
   20  C  5  Z    0.004807   0.000331   0.017088   0.015273  -0.045518
   21  C  6  S    0.134699  -0.130411   0.161508  -0.007640  -0.052085
   22  C  6  X    0.005613  -0.019511  -0.024095  -0.048691  -0.011060
   23  C  6  Y    0.035267  -0.038502   0.024583  -0.016717  -0.014213
   24  C  6  Z    0.004196  -0.004607   0.007584   0.001132  -0.045146
   25  C  7  S    0.109581  -0.065977   0.188567   0.096531   0.060945
   26  C  7  X    0.002117  -0.021440  -0.024524  -0.041775  -0.017938
   27  C  7  Y    0.019617  -0.015211   0.016135   0.007509   0.023513
   28  C  7  Z    0.011592  -0.007531   0.032033   0.013369  -0.037860
   29  C  8  S    0.133131  -0.132265   0.013110  -0.019127   0.189777
   30  C  8  X    0.008855  -0.021383  -0.007621  -0.042922  -0.021395
   31  C  8  Y    0.012507  -0.014352  -0.035078  -0.003544   0.032571
   32  C  8  Z    0.030408  -0.033129   0.008451  -0.014456   0.017530
   33  C  9  S    0.090868  -0.001205   0.068844   0.120844   0.229624
   34  C  9  X   -0.000674  -0.021373  -0.006699  -0.003787  -0.004912
   35  C  9  Y    0.003078  -0.001326  -0.037621   0.002194   0.019625
   36  C  9  Z    0.016101  -0.000077   0.021750   0.023049   0.027145
   37  C 10  S    0.102886  -0.063114   0.096308   0.078615   0.180399
   38  C 10  X    0.005700  -0.022500  -0.012513  -0.031768  -0.013817
   39  C 10  Y    0.009810  -0.008872  -0.023977   0.001584   0.037360
   40  C 10  Z    0.018267  -0.012573   0.031848   0.012284   0.004614
   41  C 11  S    0.130981   0.126085   0.083061   0.002504   0.206357
   42  C 11  X   -0.009178  -0.022350   0.012525   0.044714   0.017642
   43  C 11  Y    0.013702   0.015732  -0.024697  -0.012537   0.022146
   44  C 11  Z    0.030199   0.031594   0.024046  -0.005900   0.025375
   45  C 12  S    0.103920   0.056662   0.143323   0.110898   0.208343
   46  C 12  X   -0.005664  -0.022042   0.004946   0.024076   0.001389
   47  C 12  Y    0.009371   0.006618  -0.016783   0.001079   0.033627
   48  C 12  Z    0.019813   0.011574   0.044008   0.025208   0.015197
   49  C 13  S    0.113910   0.051765   0.248724   0.169389   0.112236
   50  C 13  X   -0.001956  -0.020261   0.014104   0.024459  -0.002877
   51  C 13  Y    0.020118   0.011450   0.028409   0.020786   0.032126
   52  C 13  Z    0.013493   0.005501   0.045015   0.032018  -0.032799
   53  C 14  S    0.112229  -0.051260  -0.227530   0.199051   0.106526
   54  C 14  X    0.001773  -0.019919   0.011760  -0.026448   0.003615
   55  C 14  Y   -0.020003   0.011516   0.026416  -0.024395  -0.031402
   56  C 14  Z    0.013098  -0.005380  -0.039648   0.036612  -0.034103
   57  C 15  S    0.102555  -0.056510  -0.132296   0.127874   0.206469
   58  C 15  X    0.005602  -0.021647   0.002412  -0.024505   0.000124
   59  C 15  Y   -0.009820   0.007006  -0.015107   0.000635  -0.035362
   60  C 15  Z    0.019774  -0.011553  -0.040789   0.030797   0.015058
   61  C 16  S    0.129485  -0.124667  -0.085679   0.014444   0.210765
   62  C 16  X    0.008511  -0.021346   0.007611  -0.045001  -0.017266
   63  C 16  Y   -0.014302   0.016300  -0.021534   0.015528  -0.025031
   64  C 16  Z    0.030318  -0.031704  -0.025028  -0.002596   0.026685
   65  C 17  S    0.102590   0.062952  -0.093225   0.091920   0.171078
   66  C 17  X   -0.005634  -0.022416  -0.008707   0.033316   0.014934
   67  C 17  Y   -0.009424  -0.008614  -0.024068   0.002361  -0.036693
   68  C 17  Z    0.017848   0.012451  -0.030495   0.016165   0.002052
   69  C 18  S    0.090305   0.000964  -0.060936   0.129480   0.225904
   70  C 18  X    0.000919  -0.021238  -0.006363   0.005017   0.007252
   71  C 18  Y   -0.003380  -0.001283  -0.036677   0.002718  -0.021607
   72  C 18  Z    0.016074   0.000244  -0.019665   0.025943   0.026425
   73  C 19  S    0.133133   0.132465  -0.021428  -0.017631   0.179499
   74  C 19  X   -0.009057  -0.021687  -0.002742   0.044122   0.021668
   75  C 19  Y   -0.012593  -0.014470  -0.034369   0.008688  -0.032614
   76  C 19  Z    0.030103   0.032896  -0.010817  -0.013222   0.015316
   77  C 20  S    0.132052  -0.122527   0.147275   0.023597  -0.158190
   78  C 20  X    0.008768  -0.023698  -0.016279  -0.052243  -0.000281
   79  C 20  Y    0.023225  -0.024851   0.003047  -0.004197  -0.036672
   80  C 20  Z   -0.023101   0.023989  -0.031051   0.009522  -0.001738
   81  C 21  S    0.157556  -0.177217   0.075091  -0.083351  -0.170504
   82  C 21  X   -0.006400  -0.000348  -0.016031  -0.032256   0.026649
   83  C 21  Y    0.016520  -0.020255  -0.022362  -0.012235  -0.014542
   84  C 21  Z   -0.042520   0.050856  -0.021455   0.039455   0.021569
   85  C 22  S    0.107831   0.001040   0.241207   0.204159  -0.091353
   86  C 22  X   -0.003148  -0.022555  -0.014831  -0.016280  -0.011135
   87  C 22  Y    0.015342  -0.001109   0.017380   0.027569  -0.030885
   88  C 22  Z   -0.014995  -0.001718  -0.048403  -0.025936  -0.027522
   89  C 23  S    0.104271  -0.050046   0.151394   0.145369  -0.169920
   90  C 23  X    0.002852  -0.021741  -0.012438  -0.034753  -0.002478
   91  C 23  Y    0.009497  -0.006413  -0.016195   0.012059  -0.031339
   92  C 23  Z   -0.018840   0.009880  -0.040648  -0.021145   0.008615
   93  C 24  S    0.094177  -0.031349   0.029714   0.165130  -0.197060
   94  C 24  X    0.003269  -0.020357  -0.001185  -0.017278  -0.000179
   95  C 24  Y   -0.000229  -0.000187  -0.045947   0.004171   0.000195
   96  C 24  Z   -0.018375   0.007487  -0.007856  -0.028955   0.028442
   97  C 25  S    0.108773  -0.079950  -0.060120   0.120526  -0.167234
   98  C 25  X    0.003650  -0.018775   0.009211  -0.043148   0.011487
   99  C 25  Y   -0.005884   0.006159  -0.036694   0.006366   0.026017
  100  C 25  Z   -0.023189   0.019314   0.024271  -0.019968   0.015835
  101  C 26  S    0.144070  -0.154953  -0.016872  -0.028430  -0.154936
  102  C 26  X    0.003686  -0.013864   0.006939  -0.048010   0.016844
  103  C 26  Y   -0.013625   0.016532  -0.034060   0.017202   0.029761
  104  C 26  Z   -0.037310   0.043825   0.008922   0.025650   0.014577
  105  C 27  S    0.113805  -0.061511  -0.188608   0.200281  -0.092873
  106  C 27  X    0.000428  -0.018593   0.019125  -0.038615   0.009715
  107  C 27  Y   -0.013766   0.010262  -0.004228  -0.011568   0.033342
  108  C 27  Z   -0.018895   0.011325   0.050128  -0.033426  -0.023866
  109  C 28  S    0.113891   0.060977   0.213071   0.175565  -0.086646
  110  C 28  X    0.000026  -0.018204   0.024134   0.035729  -0.009989
  111  C 28  Y    0.014443   0.010595  -0.000231   0.013405  -0.032994
  112  C 28  Z   -0.019388  -0.011627  -0.053464  -0.027103  -0.024266
  113  C 29  S    0.144062   0.154494   0.017485  -0.027642  -0.148260
  114  C 29  X   -0.003694  -0.014042   0.013536   0.047251  -0.016552
  115  C 29  Y    0.013133   0.016142  -0.035718  -0.012871  -0.029429
[...]
    3  C  1  Y   -0.102463   0.051513   0.064063   0.088345
    4  C  1  Z   -0.156851   0.043247   0.042178   0.090375
    5  C  2  S   -0.072044   0.114010   0.019102   0.068055
    6  C  2  X   -0.103321   0.110987   0.003357   0.093869
    7  C  2  Y    0.138221  -0.162898  -0.034676  -0.077190
    8  C  2  Z    0.068707  -0.045242  -0.011285  -0.012644
    9  C  3  S   -0.061798  -0.067820   0.049423  -0.012008
   10  C  3  X   -0.076541  -0.036110   0.051542   0.003760
   11  C  3  Y   -0.182780  -0.041673   0.021727  -0.019612
   12  C  3  Z    0.134977   0.028092  -0.049111   0.031903
   13  C  4  S   -0.035689   0.063853  -0.089240  -0.042270
   14  C  4  X   -0.052567   0.089030  -0.186427  -0.037617
   15  C  4  Y    0.034841   0.002468  -0.043669  -0.019573
   16  C  4  Z    0.027002  -0.084084   0.111761  -0.027674
   17  C  5  S    0.026002   0.022134   0.051128  -0.010278
   18  C  5  X   -0.015020   0.042397   0.032314   0.014104
   19  C  5  Y   -0.097057  -0.083505  -0.260590  -0.034764
   20  C  5  Z    0.007660   0.002276   0.016742   0.007043
   21  C  6  S   -0.024329  -0.042773  -0.030980   0.000971
   22  C  6  X    0.043012  -0.075338  -0.001008  -0.017858
   23  C  6  Y    0.103206   0.085082   0.015742  -0.089604
   24  C  6  Z   -0.010149  -0.019568  -0.024820   0.029232
   25  C  7  S    0.059080  -0.062154  -0.023830  -0.017708
   26  C  7  X    0.045546  -0.005545   0.006115  -0.015136
   27  C  7  Y   -0.164459   0.164769   0.168289   0.059777
   28  C  7  Z   -0.114754   0.142415   0.084158   0.044677
   29  C  8  S   -0.037564  -0.024964   0.005923  -0.007533
   30  C  8  X   -0.043506   0.029372   0.024704   0.029048
   31  C  8  Y   -0.012803   0.037335  -0.012791  -0.028220
   32  C  8  Z   -0.022659   0.179717  -0.141933  -0.003209
   33  C  9  S   -0.000952   0.019192  -0.000150  -0.005235
   34  C  9  X    0.041673  -0.046671  -0.018430  -0.000051
   35  C  9  Y   -0.010067  -0.019133  -0.029321  -0.010857
   36  C  9  Z   -0.053307  -0.089066  -0.079242  -0.072310
   37  C 10  S   -0.036639   0.079195   0.017814   0.024951
   38  C 10  X    0.010175   0.007105  -0.008240   0.006473
   39  C 10  Y    0.182895  -0.176939   0.018124  -0.001455
   40  C 10  Z    0.184740  -0.220097   0.070640   0.025578
   41  C 11  S    0.037312  -0.014885  -0.033626   0.031963
   42  C 11  X   -0.070477   0.026112   0.012328  -0.027230
   43  C 11  Y   -0.058159  -0.041007   0.000377  -0.061707
   44  C 11  Z   -0.122832  -0.056168   0.014289  -0.159693
   45  C 12  S    0.044065  -0.073791   0.000030  -0.003227
   46  C 12  X    0.026680  -0.031191  -0.015762   0.008246
   47  C 12  Y   -0.098326   0.150104   0.103236   0.079492
   48  C 12  Z   -0.049797   0.215630   0.126833   0.159842
   49  C 13  S   -0.084099   0.061608   0.020226  -0.013468
   50  C 13  X    0.018952  -0.009942  -0.034840   0.036753
   51  C 13  Y    0.235843  -0.116061  -0.080465   0.042807
   52  C 13  Z    0.113112  -0.094328  -0.052484  -0.006753
   53  C 14  S   -0.084257  -0.061548   0.019788  -0.013354
   54  C 14  X   -0.019022  -0.010215   0.034811  -0.036551
   55  C 14  Y   -0.236064  -0.115941   0.079576  -0.042557
   56  C 14  Z    0.113596   0.094536  -0.051806  -0.006890
   57  C 15  S    0.044341   0.073744   0.000549  -0.003304
   58  C 15  X   -0.026765  -0.031163   0.015473  -0.008105
   59  C 15  Y    0.098677   0.150374  -0.101876  -0.079382
   60  C 15  Z   -0.050627  -0.216632   0.125123   0.159815
   61  C 16  S    0.037264   0.015085  -0.033548   0.031523
   62  C 16  X    0.070592   0.026013  -0.012202   0.027029
   63  C 16  Y    0.057921  -0.041202  -0.000709   0.061358
   64  C 16  Z   -0.122763   0.056425   0.014943  -0.158911
   65  C 17  S   -0.037024  -0.079431   0.017191   0.024942
   66  C 17  X   -0.010232   0.006859   0.008244  -0.006662
   67  C 17  Y   -0.183181  -0.175907  -0.019516   0.001226
   68  C 17  Z    0.185596   0.219059   0.072438   0.025657
   69  C 18  S   -0.001077  -0.019088  -0.000384  -0.005043
   70  C 18  X   -0.041880  -0.046911   0.018122   0.000101
   71  C 18  Y    0.010023  -0.019302   0.029199   0.010925
   72  C 18  Z   -0.052994   0.089896  -0.078565  -0.073005
   73  C 19  S   -0.037456   0.024966   0.006011  -0.007919
   74  C 19  X    0.043644   0.029548  -0.024387  -0.028915
   75  C 19  Y    0.012988   0.037092   0.012980   0.028265
   76  C 19  Z   -0.023314  -0.178498  -0.143330  -0.002568
   77  C 20  S    0.023026   0.027333   0.041178  -0.023071
   78  C 20  X    0.016300   0.016667   0.037369  -0.013836
   79  C 20  Y   -0.054411  -0.101428  -0.146767   0.106341
   80  C 20  Z    0.016556   0.076236   0.123287  -0.057923
   81  C 21  S   -0.032791   0.027264  -0.032686   0.019113
   82  C 21  X    0.009934   0.037460  -0.037239   0.026570
   83  C 21  Y    0.001444  -0.014603   0.056225  -0.038191
   84  C 21  Z    0.013952   0.022901  -0.140534  -0.022094
   85  C 22  S   -0.030306  -0.013321  -0.049863   0.012378
   86  C 22  X   -0.011537  -0.010726  -0.033622  -0.001016
   87  C 22  Y    0.069068   0.008338   0.133522  -0.051868
   88  C 22  Z   -0.042388   0.016292  -0.045830   0.038873
   89  C 23  S    0.025914  -0.022631   0.012749   0.014696
   90  C 23  X   -0.013262  -0.019993  -0.037131   0.017551
   91  C 23  Y   -0.016232   0.037661   0.031721  -0.007000
   92  C 23  Z    0.020147  -0.047601  -0.048552   0.033402
   93  C 24  S   -0.018455  -0.000619  -0.023632  -0.010347
   94  C 24  X   -0.011487  -0.008821  -0.014697  -0.003287
   95  C 24  Y    0.003478  -0.007347  -0.002962   0.007152
   96  C 24  Z   -0.018373  -0.091244  -0.043170   0.014115
   97  C 25  S    0.018790   0.025451   0.013494  -0.001171
   98  C 25  X   -0.016634   0.012415   0.009028  -0.051057
   99  C 25  Y    0.029383   0.016107   0.053702   0.021896
  100  C 25  Z    0.039808   0.036479   0.210544  -0.071396
  101  C 26  S    0.040926  -0.014351   0.023408   0.068212
  102  C 26  X    0.017745  -0.000957  -0.016308   0.105273
  103  C 26  Y   -0.003249   0.009486  -0.050037   0.110798
  104  C 26  Z   -0.029629  -0.033705  -0.107871   0.218556
  105  C 27  S   -0.031091  -0.017421   0.006933  -0.062526
  106  C 27  X   -0.027656   0.013411  -0.029339  -0.059209
  107  C 27  Y   -0.026330   0.030274  -0.031075  -0.132499
  108  C 27  Z   -0.006849   0.020439  -0.064214  -0.086694
  109  C 28  S   -0.031134   0.017411   0.006981  -0.062865
  110  C 28  X    0.027744   0.013111   0.029505   0.059423
  111  C 28  Y    0.026668   0.029953   0.031487   0.132894
  112  C 28  Z   -0.007162  -0.019965  -0.064494  -0.087221
  113  C 29  S    0.041007   0.014060   0.023646   0.068548
  114  C 29  X   -0.017779  -0.001080   0.016254  -0.105638
  115  C 29  Y    0.003205   0.009092   0.049887  -0.110756
  116  C 29  Z   -0.029579   0.034699  -0.107386   0.218985
  117  C 30  S    0.018735  -0.025604   0.013131  -0.001043
  118  C 30  X    0.016632   0.012454  -0.009012   0.051309
  119  C 30  Y   -0.029446   0.016532  -0.053470  -0.022163
  120  C 30  Z    0.039992  -0.038306   0.210315  -0.071467
  121  C 31  S   -0.018434   0.000959  -0.023670  -0.010290
  122  C 31  X    0.011451  -0.009030   0.014558   0.003379
  123  C 31  Y   -0.003458  -0.007225   0.002761  -0.007093
  124  C 31  Z   -0.017884   0.091561  -0.042355   0.014611
  125  C 32  S    0.025943   0.022381   0.013058   0.014718
  126  C 32  X    0.013218  -0.020401   0.037052  -0.017541
  127  C 32  Y    0.016303   0.038024  -0.031469   0.007205
  128  C 32  Z    0.020158   0.047976  -0.048056   0.033562
  129  C 33  S   -0.030309   0.013835  -0.049856   0.012228
  130  C 33  X    0.011471  -0.011036   0.033549   0.001040
  131  C 33  Y   -0.069032   0.009626  -0.133430   0.051155
  132  C 33  Z   -0.042382  -0.015793  -0.045886   0.038412
  133  C 34  S    0.053642  -0.059822   0.013558   0.012844
  134  C 34  X   -0.082314   0.069054  -0.029966   0.009635
  135  C 34  Y   -0.079327   0.093624  -0.070631   0.143407
  136  C 34  Z   -0.023392   0.022953   0.028985   0.022886
  137  C 35  S    0.043312  -0.003503  -0.031613   0.070127
  138  C 35  X    0.024873  -0.050702   0.007626  -0.025674
  139  C 35  Y   -0.118384  -0.040192   0.116913  -0.264682
  140  C 35  Z    0.007237   0.035396   0.030275   0.068221
  141  C 36  S   -0.056494   0.015601  -0.046281  -0.115325
  142  C 36  X    0.034753  -0.008751   0.034819   0.148072
  143  C 36  Y    0.047089  -0.037773  -0.016048   0.097734
  144  C 36  Z   -0.018597   0.012696   0.021021  -0.125265
  145  C 37  S   -0.035902  -0.063036  -0.089857  -0.042399
  146  C 37  X    0.052851   0.087322   0.187205   0.037770
  147  C 37  Y   -0.034818   0.002323   0.043828   0.019511
  148  C 37  Z    0.027287   0.083129   0.112512  -0.027694
  149  C 38  S   -0.061661   0.067603   0.049953  -0.012314
  150  C 38  X    0.076449  -0.035939  -0.051830  -0.003673
  151  C 38  Y    0.182943  -0.042102  -0.022053   0.020105
  152  C 38  Z    0.134846  -0.028105  -0.049294   0.032263
  153  C 39  S    0.023747  -0.066264  -0.014753  -0.092725
  154  C 39  X    0.006164  -0.076787   0.020697  -0.106883
  155  C 39  Y   -0.039250   0.080827  -0.055569   0.049334
  156  C 39  Z   -0.017809  -0.029577   0.052461  -0.008415
  157  C 40  S    0.030087  -0.006923   0.087834   0.109684
  158  C 40  X    0.077570  -0.037510   0.188087   0.143426
  159  C 40  Y    0.027613  -0.036206   0.057728   0.036493
  160  C 40  Z    0.001202   0.023145  -0.002305   0.059053
  161  C 41  S   -0.056400  -0.015084  -0.046245  -0.114893
  162  C 41  X   -0.034619  -0.008407  -0.034725  -0.147700
  163  C 41  Y   -0.047035  -0.037800   0.015866  -0.097502
  164  C 41  Z   -0.018509  -0.012837   0.021021  -0.124931
  165  C 42  S    0.043319   0.003653  -0.031694   0.069937
  166  C 42  X   -0.024986  -0.050548  -0.008035   0.025718
  167  C 42  Y    0.118181  -0.039557  -0.117427   0.264177
  168  C 42  Z    0.006949  -0.035653   0.030002   0.067913
  169  C 43  S    0.053696   0.059547   0.014010   0.012571
  170  C 43  X    0.082333   0.068569   0.030475  -0.009900
  171  C 43  Y    0.079333   0.092750   0.071517  -0.143376
  172  C 43  Z   -0.023520  -0.023169   0.028733   0.023045
  173  C 44  S   -0.032863  -0.026894  -0.032922   0.018964
  174  C 44  X   -0.009849   0.037215   0.037594  -0.026622
  175  C 44  Y   -0.001450  -0.014165  -0.056482   0.038217
  176  C 44  Z    0.013894  -0.021816  -0.140733  -0.022267
  177  C 45  S    0.022973  -0.027752   0.040989  -0.022927
  178  C 45  X   -0.016220   0.017022  -0.037249   0.013758
  179  C 45  Y    0.054116  -0.102831   0.145952  -0.106220
  180  C 45  Z    0.016294  -0.077203   0.122447  -0.057787
  181  C 46  S    0.030198   0.006147   0.088045   0.109948
  182  C 46  X   -0.077833  -0.035767  -0.188583  -0.143741
  183  C 46  Y   -0.027773  -0.035679  -0.058095  -0.036539
  184  C 46  Z    0.001180  -0.023106  -0.002473   0.059125
  185  C 47  S    0.023893   0.066291  -0.014275  -0.092816
  186  C 47  X   -0.006344  -0.076610  -0.021244   0.107062
  187  C 47  Y    0.039492   0.080295   0.056282  -0.049336
  188  C 47  Z   -0.017765   0.029107   0.052644  -0.008376
  189  C 48  S   -0.072369  -0.113921   0.018188   0.068052
  190  C 48  X    0.103626   0.110639  -0.002502  -0.093893
  191  C 48  Y   -0.138718  -0.162674   0.033395   0.077302
  192  C 48  Z    0.069042   0.045312  -0.010932  -0.012639
  193  C 49  S    0.082457   0.088094   0.017359  -0.024598
  194  C 49  X   -0.118182  -0.075802  -0.013625   0.055854
  195  C 49  Y    0.102446   0.051648  -0.063647  -0.088140
  196  C 49  Z   -0.157086  -0.043188   0.041866   0.090085
  197  C 50  S    0.025915  -0.022636   0.050935  -0.010125
  198  C 50  X    0.015170   0.042624  -0.031970  -0.014092
  199  C 50  Y    0.096712  -0.086019   0.259842   0.034890
  200  C 50  Z    0.007574  -0.002333   0.016480   0.007045
  201  C 51  S   -0.024199   0.043040  -0.030637   0.000735
  202  C 51  X   -0.043243  -0.075221   0.000415   0.017860
  203  C 51  Y   -0.102882   0.085456  -0.015034   0.089092
  204  C 51  Z   -0.010019   0.019706  -0.024655   0.029104
  205  C 52  S    0.059300   0.062256  -0.023332  -0.017592
  206  C 52  X   -0.045519  -0.005342  -0.006170   0.014895
  207  C 52  Y    0.164820   0.165551  -0.166907  -0.059386
  208  C 52  Z   -0.115341  -0.142931   0.083135   0.044527

     ----------------------------------------------------------------
     PROPERTY VALUES FOR THE RHF   SELF-CONSISTENT FIELD WAVEFUNCTION
     ----------------------------------------------------------------

                    -------------
                    MOPAC CHARGES
                    -------------
         ATOM NO.   TYPE          CHARGE        ATOM  ELECTRON DENSITY
           1         C              0.0221          3.9779
           2         C              0.0066          3.9934
           3         C             -0.0103          4.0103
           4         C             -0.0044          4.0044
           5         C             -0.0040          4.0040
           6         C             -0.0010          4.0010
           7         C             -0.0011          4.0011
           8         C             -0.0160          4.0160
           9         C              0.0057          3.9943
          10         C              0.0200          3.9800
          11         C              0.0139          3.9861
          12         C              0.0129          3.9871
          13         C              0.0015          3.9985
          14         C              0.0016          3.9984
          15         C              0.0129          3.9871
          16         C              0.0140          3.9860
          17         C              0.0199          3.9801
          18         C              0.0057          3.9943
          19         C             -0.0160          4.0160
          20         C             -0.0354          4.0354
          21         C              0.0417          3.9583
          22         C             -0.0461          4.0461
          23         C              0.0250          3.9750
          24         C              0.0242          3.9758
          25         C              0.0189          3.9811
          26         C             -0.0030          4.0030
          27         C              0.0010          3.9990
          28         C              0.0009          3.9991
          29         C             -0.0030          4.0030
          30         C              0.0191          3.9809
          31         C              0.0241          3.9759
          32         C              0.0251          3.9749
          33         C             -0.0462          4.0462
          34         C              0.0047          3.9953
          35         C             -0.0259          4.0259
          36         C              0.0164          3.9836
          37         C             -0.0044          4.0044
          38         C             -0.0102          4.0102
          39         C             -0.0655          4.0655
          40         C             -0.0019          4.0019
          41         C              0.0163          3.9837
          42         C             -0.0260          4.0260
          43         C              0.0048          3.9952
          44         C              0.0418          3.9582
          45         C             -0.0355          4.0355
          46         C             -0.0019          4.0019
          47         C             -0.0656          4.0656
          48         C              0.0066          3.9934
          49         C              0.0221          3.9779
          50         C             -0.0040          4.0040
          51         C             -0.0009          4.0009
          52         C             -0.0012          4.0012

          ---------------------
          ELECTROSTATIC MOMENTS
          ---------------------

 POINT   1           X           Y           Z (ANGS)      CHARGE
                 0.000000    0.000000    0.000000        0.00 (A.U.)
         DX          DY          DZ         /D/  (DEBYE)
    -0.000056   -0.000115   -0.304591    0.304591
 ...... END OF PROPERTY EVALUATION ......
 CPU     0: STEP CPU TIME=     0.06 TOTAL CPU TIME=          1.4 (      0.0 MIN)
 TOTAL WALL CLOCK TIME=          2.0 SECONDS, CPU UTILIZATION IS    72.47%
  $VIB   
          IVIB=   0 IATOM=   0 ICOORD=   0 E=     -224.9827827341
  1.918957302E-04-3.115438095E-06 1.092968964E-04 4.794578453E-05 1.224234943E-04
 -5.173800357E-05-2.622461447E-05-5.441811641E-05 5.466044058E-05-7.053356882E-05
 -5.736210277E-05 5.546054822E-05 1.594409809E-04 1.459569076E-04-1.888032018E-04
 -7.094353852E-05 7.601603854E-05 2.928197005E-04-1.639552255E-04-3.204616309E-04
  7.068769057E-05-1.639288274E-04-6.182705544E-06 2.214709277E-05-2.251453031E-05
 -4.683610547E-06-1.303197548E-04-9.410818496E-05 2.201031815E-04-7.876695265E-05
  6.830296829E-05 5.688665523E-05-1.295119608E-04-2.295492751E-05-4.225335474E-06
 -5.357656617E-05-6.197112036E-05-1.010568114E-04 1.533514447E-04 1.906024989E-05
  7.857686373E-05 1.227274362E-04 9.709732133E-06 1.510561975E-04-1.776164015E-04
 -4.937733933E-05-4.657697572E-05 2.423063054E-05 1.918350887E-05-1.346443665E-04
 -2.603858062E-04 1.320744842E-05-1.098595597E-04 2.073728644E-04 2.546224445E-04
 -3.859095068E-05 1.921202041E-04 1.578049097E-04 2.292496361E-05-2.404361193E-04
  3.273134518E-05-1.808480278E-05-8.386268161E-06-4.576250414E-05 1.053128397E-04
  2.476743079E-04-2.553121074E-04-5.510972628E-05 2.476925036E-05 8.018540581E-05
  1.906128901E-05-2.761894383E-04-3.055026602E-05 1.153593097E-05 1.999028507E-04
 -8.435124185E-06-3.781502405E-05-2.164621769E-04-2.212339249E-04-3.520829301E-05
  4.533754455E-05 2.474829809E-04-1.290611137E-04 1.458014192E-04-8.564759744E-05
 -1.509853092E-06-1.646275343E-04 1.506233470E-04 9.556756255E-05 2.691234352E-05
 -1.332847274E-04-6.281848458E-06 1.404311892E-04 2.859809322E-04-1.238349693E-04
 -1.980117592E-04 7.416733000E-05 7.508400865E-05 3.437737899E-04 1.981171085E-05
 -7.232493287E-05-1.123047369E-04 3.306117395E-05 1.459472922E-04-2.417186941E-04
 -1.452825310E-05 1.366850619E-04 1.243858569E-04 7.329918333E-05 1.493157905E-05
  6.603842909E-05 9.503923031E-06 5.045056550E-05 1.376617692E-04 5.831250592E-05
  1.455255011E-04-5.678478601E-05-4.939851836E-05-1.035735002E-04 2.243104056E-05
  2.937028453E-05-1.218784698E-04 8.591506713E-05 1.950781316E-05-1.292743438E-04
 -1.651867990E-04-3.718824465E-05 6.645319713E-05-5.303290826E-05-3.156313189E-05
  1.438025969E-05-3.171050003E-05-2.196143207E-04 8.129570737E-05-1.658819788E-04
  6.235170860E-06 1.210750237E-04 1.372313501E-05-5.633121600E-05-1.396209881E-04
 -5.465357436E-05-1.370324797E-05-8.800648467E-05-3.014348001E-05-1.981463870E-04
  5.633547336E-06 3.579005369E-05-1.863554897E-04-2.045587027E-04-2.079894453E-04
  8.068955634E-05-1.302551364E-04 2.910039371E-04 1.914305177E-04 3.146921250E-04
  3.781191360E-05
 -5.600386734E-05-1.153070719E-04-3.045913667E-01
 ......END OF GEOMETRY SEARCH......
 CPU     0: STEP CPU TIME=     0.02 TOTAL CPU TIME=          1.4 (      0.0 MIN)
 TOTAL WALL CLOCK TIME=          2.0 SECONDS, CPU UTILIZATION IS    72.13%
                580000  WORDS OF DYNAMIC MEMORY USED
 EXECUTION OF GAMESS TERMINATED NORMALLY 21:11:14 27-MAY-2023    
 DDI: 263640 bytes (0.3 MB / 0 MWords) used by master data server.

 ----------------------------------------
 CPU timing information for all processes
 ========================================
 0: 1.046875 + 0.390625 = 1.437500
 1: 1.015625 + 0.390625 = 1.406250
 2: 0.593750 + 0.671875 = 1.265625
 3: 0.781250 + 0.734375 = 1.515625
 ----------------------------------------
           Disk usage (in bytes)       
 ========================================
 ----------------------------------------
            Local date and time          
 ========================================
27.05.2023 - 21:11:14,22                          
