          *******************************************************
          *                                                     *
          *          GAMESS VERSION = 30 SEP 2022 (R2)          *
          *                                                     *
          *              doi.org/10.1063/5.0005188              *
          *                                                     *
          *************** 64 BIT WINDOWS VERSION ****************

  GAMESS HAS BEEN MADE POSSIBLE WITH IMPORTANT CONTRIBUTIONS FROM
  THE FOLLOWING INDIVIDUALS (IN ALPHABETICAL ORDER):

     IVANA ADAMOVIC, CHRISTINE AIKENS, TOMOKO AKAMA,
     MELISA ALKAN, YURI ALEXEEV, YURIKO AOKI, POOJA ARORA,
     TOSHIO ASADA, ANDREY ASADCHEV, KIM K. BALDRIDGE,
     PRADIPTA BANDYOPADHYAY, TAYLOR A. BARNES, MARIA BARYSZ,
     ROB BELL, JONATHAN BENTZ, COLLEEN BERTONI,
     JERRY A. BOATZ, BRETT BODE, KURT BRORSEN, KURT R. BRORSEN,
     LAIMUTIS BYTAUTAS, CALEB CARLIN, LAURA CARRINGTON,
     GALINA CHABAN, BENOIT CHAMPAGNE, WEI CHEN, MAHITO CHIBA,
     DAN CHIPMAN, CHEOL HO CHOI, TANNER CULPITT,
     DIPAYAN DATTA, PAUL DAY, ALBERT DEFUSCO,
     NUWAN DESILVA, J. EMILIANO DEUSTUA,
     TIM DUDLEY, MICHEL DUPUIS, STEVEN T. ELBERT,
     DMITRI FEDOROV, KATHERINE FERRERAS, MICHAEL FILATOV,
     ALEX FINDLATER,GRAHAM FLETCHER, MARK FREITAG,
     CHRISTIAN FRIEDL, DAVID GARMER, 
     IGOR S. GERASIMOV, KURT GLAESEMANN,
     MARK S. GORDON, JEFFREY GOUR, FENG LONG GU,
     EMILIE B. GUIDEZ, ANASTASIA GUNINA, SHARON HAMMES-SCHIFFER,
     MASATAKE HARUTA, KIMIHIKO HIRAO, YASUHIRO IKABATA,
     TZVETELIN IORDANOV, STEPHAN IRLE, KAZUYA ISHIMURA,
     JOE IVANIC, FRANK JENSEN, JAN H. JENSEN, VISVALDAS KAIRYS,
     MUNEAKI KAMIYA, MICHIO KATOUDA, NAOAKI KAWAKAMI, DAN KEMP,
     BERNARD KIRTMAN, KAZUO KITAURA, MARIUSZ KLOBUKOWSKI,
     MASATO KOBAYASHI, KONSTANTIN KOMAROV, PRAKASHAN KORAMBATH,
     JACEK KORCHOWIEC, SHIRO KOSEKI, KAROL KOWALSKI,
     JIMMY KROMANN, STANISLAW KUCHARSKI, HENRY KURTZ,
     SAROM SOK LEANG, SEUNGHOON LEE, HUI LI, SHUHUA LI, WEI LI,
     JESSE LUTZ, ALEKSANDR O. LYKHIN, MARCIN MAKOWSKI,
     JOANI MATO, NIKITA MATSUNAGA, BENEDETTA MENNUCCI,
     GRANT MERRILL, NORIYUKI MINEZAWA, VLADIMIR MIRONOV,
     EISAKU MIYOSHI, JOHN A. MONTGOMERY JR., HIROTOSHI MORI,
     JONATHAN MULLIN, MONIKA MUSIAL, SHIGERU NAGASE,
     TAKESHI NAGATA, HIROMI NAKAI, TAKAHITO NAKAJIMA,
     YUYA NAKAJIMA, HARUYUKI NAKANO, HIROYA NAKATA, SEAN NEDD,
     HEATHER NETZLOFF, KIET A. NGUYEN, YOSHIO NISHIMOTO,
     BOSILJKA NJEGIC, RYAN OLSON, MIKE PAK, ROBERTO PEVERATI,
     BUU PHAM, PIOTR PIECUCH, ANNA POMOGAEVA, DAVID POOLE,
     SPENCER PRUITT, OLIVIER QUINET, LUKE ROSKOP,
     KLAUS RUEDENBERG, ANDREW SAND, TOSAPORN SATTASATHUCHANA,
     NOZOMI SAWADA, MICHAEL W. SCHMIDT, PATRICK E. SCHNEIDER,
     JUNJI SEINO, PRACHI SHARMA, JUN SHEN, JIM SHOEMAKER,
     YINAN SHU, DEJUN SI, JONATHAN SKONE, LYUDMILA SLIPCHENKO,
     TONY SMITH, JIE SONG, MARK SPACKMAN, CASPER STEINMANN,
     WALT STEVENS, PEIFENG SU, SHUJUN SU, CHET SWALINA,
     CHINAMI TAKASHIMA, TETSUYA TAKETSUGU, ZHEN TAO,
     NANDUN THELLAMUREGE, SEIKEN TOKURA, JACOPO TOMASI,
     TSUGUKI TOUMA, TAKAO TSUNEDA, HIROAKI UMEDA,
     JORGE LUIS GALVEZ VALLEJO, YALI WANG, SIMON WEBB,
     AARON WEST, THERESA L. WINDUS, MARTA WLOCH,
     PENG XU, KIYOSHI YAGI, SUSUMU YANAGISAWA, YANG YANG,
     SOOHAENG YOO, TAKESHI YOSHIKAWA, FEDERICO ZAHARIEV,
     TOBY ZENG

  WHO ARE SUPPORTED BY THEIR INSTITUTION/UNIVERSITY/COMPANY/GROUP
  (IN ALPHABETICAL ORDER):

     EP ANALYTICS,
     FACULTES UNIVERSITAIRES NOTRE-DAME DE LA PAIX,
     INSTITUTE FOR MOLECULAR SCIENCE, IOWA STATE UNIVERSITY,
     JACKSON STATE UNIVERSITY, JOHANNES KEPLER UNIVERSITY LINZ,
     KYUNGPOOK NATIONAL UNIVERSITY
     KYUSHU UNIVERSITY, MICHIGAN STATE UNIVERSITY,
     MIE UNIVERSITY, THE MOLECULAR SCIENCES SOFTWARE INSTITUTE,
     MOSCOW STATE UNIVERSITY,
     N. COPERNICUS UNIVERSITY, NAGOYA UNIVERSITY,
     NANJING UNIVERSITY, NAT. INST. OF ADVANCED INDUSTRIAL
     SCIENCE AND TECHNOLOGY, NATIONAL INST. OF STANDARDS AND
     TECHNOLOGY, NESMEYANOV INSTITUTE OF ORGANOELEMENT COMPOUNDS
     OF RUSSIAN ACADEMY OF SCIENCES, OSAKA PREFECTURE UNIVERSITY,
     PENNSYLVANIA STATE UNIVERSITY, TOKYO INSTITUTE OF TECHNOLOGY,
     UNIVERSITY OF AARHUS, UNIVERSITY OF ALBERTA,
     UNIVERSITY OF CALIFORNIA AT SANTA BARBARA,
     UNIVERSITY OF COPENHAGEN, UNIVERSITY OF IOWA,
     UNIVERSITY OF MEMPHIS, UNIVERSITY OF MINNESOTA,
     UNIVERSITY OF NEBRASKA, UNIVERSITY OF NEW ENGLAND,
     UNIVERSITY OF NOTRE DAME, UNIVERSITY OF PISA,
     UNIVERSITY OF SILESIA, UNIVERSITY OF TOKYO,
     UNIVERSITY OF ZURICH, WASEDA UNIVERSITY,
     YALE UNIVERSITY

  GAMESS SOFTWARE MANAGEMENT TEAM FOR THIS RELEASE:
     MARK S. GORDON (TEAM LEAD),
     BRETT BODE (SENIOR ADVISOR),
     GIUSEPPE BARCA,
     COLLEEN BERTONI,
     KRISTOPHER KEIPERT (ADVISOR),
     SAROM S. LEANG (DEVELOPMENT LEAD),
     BUU PHAM,
     JACKSON HAYES (WEBSITE ADMINISTRATOR),
     PENG XU


 PARALLEL VERSION RUNNING ON        2 PROCESSORS IN        2 NODES.

 EXECUTION OF GAMESS BEGUN 21:04:18 22-MAY-2023    

            ECHO OF THE FIRST FEW INPUT CARDS -
 INPUT CARD>! (Energy/Geometry) PM3                                                         
 INPUT CARD> $CONTRL                                                                        
 INPUT CARD>COORD=UNIQUE                                                                    
 INPUT CARD>ICHARG=0                                                                        
 INPUT CARD>MAXIT=200                                                                       
 INPUT CARD>MULT=1                                                                          
 INPUT CARD>RUNTYP=OPTIMIZE                                                                 
 INPUT CARD>SCFTYP=RHF                                                                      
 INPUT CARD>UNITS=ANGS                                                                      
 INPUT CARD>! DFTTYP=PBE                                                                    
 INPUT CARD> $END                                                                           
 INPUT CARD> $DFT                                                                           
 INPUT CARD>METHOD=GRID                                                                     
 INPUT CARD> $END                                                                           
 INPUT CARD> $BASIS                                                                         
 INPUT CARD>! EXTFIL=.T.                                                                    
 INPUT CARD>! GBASIS=GEGSSBAS                                                               
 INPUT CARD>! NGAUSS=6                                                                      
 INPUT CARD>GBASIS=PM3                                                                      
 INPUT CARD>! NDFUNC=1                                                                      
 INPUT CARD>! NPFUNC=1                                                                      
 INPUT CARD> $END                                                                           
 INPUT CARD> $SCF                                                                           
 INPUT CARD>DAMP=.F.                                                                        
 INPUT CARD>DEM=.F.                                                                         
 INPUT CARD>DIIS=.F.                                                                        
 INPUT CARD>DIRSCF=.T.                                                                      
 INPUT CARD>EXTRAP=.T.                                                                      
 INPUT CARD>RSTRCT=.F.                                                                      
 INPUT CARD>SHIFT=.F.                                                                       
 INPUT CARD>SOSCF=.T.                                                                       
 INPUT CARD> $END                                                                           
 INPUT CARD> $STATPT                                                                        
 INPUT CARD>METHOD=QA                                                                       
 INPUT CARD>NSTEP=100                                                                       
 INPUT CARD>OPTTOL=0.001                                                                    
 INPUT CARD> $END                                                                           
 INPUT CARD> $GUESS                                                                         
 INPUT CARD>GUESS=HUCKEL                                                                    
 INPUT CARD> $END                                                                           
 INPUT CARD> $SYSTEM                                                                        
 INPUT CARD>MWORDS=10                                                                       
 INPUT CARD> $END                                                                           
 INPUT CARD> $DATA                                                                          
 INPUT CARD>C60 FULLERENE                                                                   
 INPUT CARD>C1                                                                              
 INPUT CARD>C	6.0	2.1665	0.5906	2.5874                                                      
 INPUT CARD>C	6.0	3.0378	0.1766	1.5918                                                      
 INPUT CARD>C	6.0	1.2786	-0.3098	3.1679                                                     
 INPUT CARD>C	6.0	3.0118	-1.1434	1.1654                                                     
     10000000 WORDS OF MEMORY AVAILABLE

     BASIS OPTIONS
     -------------
     GBASIS=PM3          IGAUSS=       0      POLAR=NONE    
     NDFUNC=       0     NFFUNC=       0     DIFFSP=       F
     NPFUNC=       0      DIFFS=       F     BASNAM=        


     RUN TITLE
     ---------
 C60 FULLERENE                                                                   

 THE POINT GROUP OF THE MOLECULE IS C1      
 THE ORDER OF THE PRINCIPAL AXIS IS     0

 ATOM      ATOMIC                      COORDINATES (BOHR)
           CHARGE         X                   Y                   Z
 C           6.0     4.0940913524        1.1160721683        4.8894770206
 C           6.0     5.7406096055        0.3337256094        3.0080658273
 C           6.0     2.4162036479       -0.5854371110        5.9864629565
 C           6.0     5.6914767298       -2.1607126944        2.2022866661
 C           6.0     5.8645756303       -2.7089222034       -0.3647171156
 C           6.0     5.9532037791        2.2877022807        1.2627149050
 C           6.0     6.1280034330        1.7289103062       -1.2961630550
 C           6.0     6.0834058997       -0.7602367649       -2.1178159144
 C           6.0    -0.8301566264        2.5562323436        5.9093621362
 C           6.0     0.8244874484        4.2741822390        4.8267381178
 C           6.0    -0.0559358892        0.1196196550        6.4966889732
 C           6.0     3.2960600678        3.5507951309        4.3142444300
 C           6.0     4.4444465505        4.2851426498        2.0768088605
 C           6.0    -0.4975648526        5.7198226196        3.0851666476
 C           6.0     0.6375935483        6.4352728786        0.8263771744
 C           6.0     3.1210714413        5.7217123456        0.3225762261
 C           6.0    -3.9500942321       -1.5542996249        4.9047838011
 C           6.0    -4.7452909278        0.8813682007        4.3187797723
 C           6.0    -1.5966294870       -1.9373470826        5.9976123398
 C           6.0    -3.1887236317        2.9353113767        4.8210689399
 C           6.0    -2.9938928823        4.8864534591        3.0838438394
 C           6.0    -6.1064605567        0.7674177236        2.0800213947
 C           6.0    -5.9010473419        2.7230951483        0.3299461575
 C           6.0    -4.3363542240        4.7793059955        0.8312904620
 C           6.0    -0.9274775148       -5.5053387200        3.2815091777
 C           6.0    -3.2937923966       -5.1256927691        2.1990741319
 C           6.0    -0.0742662313       -3.9087092330        5.1878647541
 C           6.0    -4.8161556523       -3.1463937696        3.0126011696
 C           6.0    -6.1608846652       -1.7273985254        1.2663053844
 C           6.0    -3.1261737015       -5.6807052917       -0.3584810199
 C           6.0    -4.4487929203       -4.2403561438       -2.1108239283
 C           6.0    -5.9796599429       -2.2580335827       -1.2997535344
 C           6.0     4.0372106002       -3.8839538226        3.2801863695
 C           6.0     3.1926920563       -5.4819061178        1.3781771628
 C           6.0     2.4160146753       -3.0927255515        5.1844632473
 C           6.0     0.6950412183       -6.2978897993        1.3798779162
 C           6.0    -0.6500657398       -6.4069269888       -0.8681401188
 C           6.0     4.3253938133       -4.7715581190       -0.8768328583
 C           6.0     2.9838773346       -4.8599972952       -3.1331656876
 C           6.0     0.4837698529       -5.6793824835       -3.1239060303
 C           6.0    -4.1248938860       -1.0928285387       -4.9093191435
 C           6.0    -3.3032410265       -3.5326537614       -4.3620544975
 C           6.0    -0.8286448456       -4.2460253218       -4.8839968153
 C           6.0    -2.4216838533        0.6026336175       -5.9849511757
 C           6.0    -4.0678241612        3.8824420418       -3.2839658215
 C           6.0    -5.7608296736        2.1797989268       -2.2319553641
 C           6.0    -5.7931439880       -0.3078363634       -3.0437816484
 C           6.0    -2.3925820731        3.1004734281       -5.1534717411
 C           6.0     0.9522329252        5.5484244726       -3.2915247254
 C           6.0    -0.7158282041        6.3421093874       -1.4197511346
 C           6.0    -3.2017627410        5.5153542678       -1.4155937374
 C           6.0     0.0984547240        3.9174019725       -5.1693454394
 C           6.0     3.9638892318        1.5760314738       -4.9229251706
 C           6.0     4.8220138029        3.1979832890       -3.0437816484
 C           6.0     3.3238390398        5.1876757815       -2.2344120079
 C           6.0     1.5911492817        1.9286543431       -6.0066830246
 C           6.0     0.8430067631       -2.5501852204       -5.9830614497
 C           6.0     3.2093216449       -2.9262406920       -4.8959020890
 C           6.0     4.7590859275       -0.8736203241       -4.3786840862
 C           6.0     0.0411960265       -0.1218873262       -6.5356173285

          INTERNUCLEAR DISTANCES (ANGS.)
          ------------------------------

                1 C          2 C          3 C          4 C          5 C     

   1 C       0.0000000    1.3862825 *  1.3914262 *  2.3965333 *  3.5644616  
   2 C       1.3862825 *  0.0000000    2.4115267 *  1.3874051 *  2.4046281 *
   3 C       1.3914262 *  2.4115267 *  0.0000000    2.7764865 *  3.9860062  
   4 C       2.3965333 *  1.3874051 *  2.7764865 *  0.0000000    1.3920485 *
   5 C       3.5644616    2.4046281 *  3.9860062    1.3920485 *  0.0000000  
   6 C       2.2440123 *  1.3909886 *  3.4732373    2.4099183 *  2.7812101 *
   7 C       3.4609370    2.4031290 *  4.4955251    2.7779978 *  2.4036151 *
   8 C       3.9804564    2.7795121 *  4.7081392    2.4121561 *  1.3919089 *
   9 C       2.7680799 *  3.9787664    2.3909729 *  4.6892295    5.5979191  
  10 C       2.4057439 *  3.4701693    2.7747475 *  4.4896941    5.3212567  
  11 C       2.4133485 *  3.5818801    1.3868997 *  3.9837790    5.0238963  
  12 C       1.3895939 *  2.2470701 *  2.4063825 *  3.4627650    4.3532352  
  13 C       2.2498970 *  2.2551256 *  3.4749548    3.4748810    3.9915107  
  14 C       3.5708040    4.3614867    3.9834032    5.3230747    5.8789251  
  15 C       3.9864315    4.3646512    4.7058203    5.3267369    5.6091878  
  16 C       3.4706634    3.4742506    4.5013232    4.4987200    4.7056560  
  17 C       4.4852272    5.3200587    3.4554291    5.3084449    5.9265144  
  18 C       4.6889840    5.5995854    3.9677599    5.8607406    6.4245386  
  19 C       3.4674493    4.3614684    2.2407776 *  4.3499169    5.2049134  
  20 C       3.9724862    5.0143062    3.5564894    5.5924157    6.2772106  
  21 C       4.3545728    5.2124525    4.3520101    5.9370607    6.4389101  
  22 C       5.6019319    6.2925923    5.0125770    6.4329373    6.7221633  
  23 C       5.8754081    6.4466211    5.6032658    6.7299999    6.8674742  
  24 C       5.3171274    5.9411014    5.3169362    6.4940395    6.7262356  
  25 C       4.4791282    4.6924874    3.4580189    3.9657166    4.3394760  
  26 C       5.3123367    5.6022888    4.3496403    5.0069838    5.1926692  
  27 C       3.4584342    3.9798407    2.2378841 *  3.5582187    4.3489387  
  28 C       5.3203708    5.8821222    4.3543724    5.6012484    5.9323503  
  29 C       5.9488851    6.4578604    5.2158306    6.2957037    6.4428350  
  30 C       5.9369224    5.9429895    5.2101261    5.2036945    5.0108673  
  31 C       6.4956676    6.5015446    5.9412412    5.9341727    5.5942758  
  32 C       6.5063334    6.7486023    5.9488810    6.4483497    6.2917263  
  33 C       2.7797330 *  2.4113555 *  2.4152643 *  1.3868103 *  2.2454384 *
  34 C       3.9837968    3.4688363    3.5818163    2.2422013 *  2.2367417 *
  35 C       2.4027757 *  2.7765525 *  1.3930232 *  2.3954070 *  3.4633137  
  36 C       4.6985952    4.4929323    3.9887169    3.4602268    3.4558308  
  37 C       5.6065998    5.3261132    5.0279451    4.3532032    3.9730333  
  38 C       4.3626812    3.4764648    4.3724724    2.2552932 *  1.3886049 *
  39 C       5.3262887    4.4992222    5.3381827    3.4734464    2.4011970 *
  40 C       5.8790362    5.3284999    5.6172957    4.3595206    3.5651716  
  41 C       6.8680473    6.7363287    6.7303664    6.4393815    5.8701637  
  42 C       6.7337054    6.5039048    6.4483662    5.9371175    5.3104223  
  43 C       6.4487193    5.9497475    6.3080024    5.2138309    4.3503962  
  44 C       6.7139255    6.4283537    6.8616034    6.2722645    5.5806384  
  45 C       6.2852990    6.4461614    6.4365317    6.7324707    6.4944659  
  46 C       6.4586898    6.7591683    6.3070470    6.8926808    6.7464646  
  47 C       6.7503093    6.9009244    6.4597733    6.7529921    6.4560715  
  48 C       6.4132178    6.2705695    6.7105122    6.4189717    5.9131124  
  49 C       5.1968819    5.0148159    5.9364283    5.6021152    5.3150339  
  50 C       5.0272716    5.2223073    5.6165760    5.9510846    5.9479142  
  51 C       5.6087069    5.9490459    5.8824816    6.5048083    6.5013804  
  52 C       5.9162033    5.5889411    6.4832222    5.8585044    5.2981393  
  53 C       5.1986582    4.3508758    5.9419331    4.3546002    3.4599735  
  54 C       4.3573117    3.5762614    5.3351857    3.9949490    3.4763302  
  55 C       4.3611731    3.9911749    5.3374922    4.7120201    4.4997918  
  56 C       5.9317751    5.3188899    6.4991266    5.3161324    4.4777611  
  57 C       6.3108261    5.6288100    6.4725257    5.0385698    3.9884361  
  58 C       5.6221629    4.7185139    5.9053494    3.9998033    2.7815420 *
  59 C       5.0285736    3.9946801    5.6254409    3.5826173    2.4077490 *
  60 C       6.4483952    5.8872672    6.7489922    5.6111119    4.6940292  

                6 C          7 C          8 C          9 C         10 C     

   1 C       2.2440123 *  3.4609370    3.9804564    2.7680799 *  2.4057439 *
   2 C       1.3909886 *  2.4031290 *  2.7795121 *  3.9787664    3.4701693  
   3 C       3.4732373    4.4955251    4.7081392    2.3909729 *  2.7747475 *
   4 C       2.4099183 *  2.7779978 *  2.4121561 *  4.6892295    4.4896941  
   5 C       2.7812101 *  2.4036151 *  1.3919089 *  5.5979191    5.3212567  
   6 C       0.0000000    1.3890938 *  2.4096383 *  4.3533447    3.4681138  
   7 C       1.3890938 *  0.0000000    1.3873081 *  5.3186933    4.4931982  
   8 C       2.4096383 *  1.3873081 *  0.0000000    5.8743895    5.3241761  
   9 C       4.3533447    5.3186933    5.8743895    0.0000000    1.3861286 *
  10 C       3.4681138    4.4931982    5.3241761    1.3861286 *  0.0000000  
  11 C       4.3702745    5.3328745    5.6171451    1.3881654 *  2.4148273 *
  12 C       2.2430905 *  3.4626086    4.3548971    2.3994101 *  1.3894919 *
  13 C       1.3929394 *  2.4102631 *  3.5787768    3.5694578    2.4056525 *
  14 C       3.9851367    4.7040728    5.6095627    2.2510258 *  1.3870875 *
  15 C       3.5753137    3.9881722    5.0230185    3.4715795    2.4080838 *
  16 C       2.4074517 *  2.7802927 *  3.9863103    3.9897523    2.7829449 *
  17 C       5.9423791    6.4983152    6.4944207    2.7820666 *  3.9872697  
  18 C       5.9346962    6.4913127    6.7225364    2.4054816 *  3.4616299  
  19 C       5.2190474    5.9473156    5.9453884    2.4126957 *  3.5818636  
  20 C       5.2025449    5.9323893    6.4328800    1.3891201 *  2.2387682 *
  21 C       5.0235774    5.6093670    6.2911971    2.2510406 *  2.2446464 *
  22 C       6.4467334    6.7354349    6.8701069    3.5774531    4.3598518  
  23 C       6.2966066    6.4449074    6.7301748    3.9907003    4.3592075  
  24 C       5.6070124    5.8768166    6.4367439    3.4709466    3.4641124  
  25 C       5.6040544    5.8705116    5.3134558    4.4872237    5.3206962  
  26 C       6.2912506    6.4371210    5.9311444    4.6988947    5.6058456  
  27 C       5.0239162    5.6076192    5.3235014    3.4655009    4.3604296  
  28 C       6.4501173    6.7375852    6.4986622    3.9881628    5.0250359  
  29 C       6.7534335    6.8900643    6.7417749    4.3740951    5.2249675  
  30 C       6.4498630    6.2930155    5.6033506    5.6103943    6.2968537  
  31 C       6.7394384    6.4412944    5.8697778    5.8834308    6.4471647  
  32 C       6.8919765    6.7455311    6.4470683    5.3356680    5.9517778  
  33 C       3.5824385    3.9888394    3.4733927    4.4927063    4.7114192  
  34 C       4.3637257    4.3561292    3.4648931    5.3267577    5.6173162  
  35 C       3.9896182    4.7041908    4.4968716    3.4689912    3.9928258  
  36 C       5.3280132    5.3210027    4.4881574    5.3244261    5.8847344  
  37 C       5.8864943    5.6082122    4.6970686    5.9471894    6.4527527  
  38 C       3.9973234    3.5766013    2.4088521 *  5.9477417    5.9544196  
  39 C       4.7102802    3.9837527    2.7723055 *  6.5094099    6.5124558  
  40 C       5.6160540    5.0224697    3.9799665    6.5059042    6.7436842  
  41 C       6.5045775    5.9432757    5.6030973    6.2884162    6.4397195  
  42 C       6.5068652    5.9407569    5.3137418    6.4527666    6.7440260  
  43 C       5.9509536    5.2109146    4.3501757    6.7512588    6.8920163  
  44 C       5.9283645    5.1943103    4.9964170    6.4338944    6.2816376  
  45 C       5.8840251    5.6138688    5.9391004    5.2053023    5.0166364  
  46 C       6.4690256    6.3152679    6.4581905    5.0406540    5.2272962  
  47 C       6.7614570    6.4662832    6.3084169    5.6250550    5.9572532  
  48 C       5.5872746    5.0023457    5.1838486    5.9193074    5.5835527  
  49 C       3.9735228    3.5639511    4.3478194    5.2060512    4.3491225  
  50 C       4.3672299    4.3680340    5.2160935    4.3656911    3.5760608  
  51 C       5.3288040    5.3285800    5.9421331    4.3648590    3.9853022  
  52 C       4.6827076    3.9651762    4.3318831    5.9270891    5.3069936  
  53 C       3.4589735    2.2363713 *  2.2338012 *  6.2899148    5.6050787  
  54 C       2.4049412 *  1.3918423 *  2.2523333 *  5.6132128    4.7059154  
  55 C       2.7777170 *  2.4080012 *  3.4703082    5.0341762    3.9931348  
  56 C       4.4902360    3.4624509    3.4511848    6.4431260    5.8796399  
  57 C       5.3449664    4.3704039    3.5736442    6.9058080    6.7648663  
  58 C       4.5102126    3.4759839    2.4058481 *  6.7587481    6.5254927  
  59 C       3.4799293    2.2543843 *  1.3878377 *  6.4561233    5.9569644  
  60 C       5.3332021    4.3613503    3.9752716    6.7521253    6.4603439  

               11 C         12 C         13 C         14 C         15 C     

   1 C       2.4133485 *  1.3895939 *  2.2498970 *  3.5708040    3.9864315  
   2 C       3.5818801    2.2470701 *  2.2551256 *  4.3614867    4.3646512  
   3 C       1.3868997 *  2.4063825 *  3.4749548    3.9834032    4.7058203  
   4 C       3.9837790    3.4627650    3.4748810    5.3230747    5.3267369  
   5 C       5.0238963    4.3532352    3.9915107    5.8789251    5.6091878  
   6 C       4.3702745    2.2430905 *  1.3929394 *  3.9851367    3.5753137  
   7 C       5.3328745    3.4626086    2.4102631 *  4.7040728    3.9881722  
   8 C       5.6171451    4.3548971    3.5787768    5.6095627    5.0230185  
   9 C       1.3881654 *  2.3994101 *  3.5694578    2.2510258 *  3.4715795  
  10 C       2.4148273 *  1.3894919 *  2.4056525 *  1.3870875 *  2.4080838 *
  11 C       0.0000000    2.7887142 *  4.0001167    3.4779385    4.5064312  
  12 C       2.7887142 *  0.0000000    1.3864217 *  2.4021909 *  2.7776954 *
  13 C       4.0001167    1.3864217 *  0.0000000    2.7749567 *  2.4063761 *
  14 C       3.4779385    2.4021909 *  2.7749567 *  0.0000000    1.3902951 *
  15 C       4.5064312    2.7776954 *  2.4063761 *  1.3902951 *  0.0000000  
  16 C       4.7211534    2.4062684 *  1.3892678 *  2.4091481 *  1.3931184 *
  17 C       2.3959891 *  4.7009732    5.6143896    4.3683196    5.3316689  
  18 C       2.7656081 *  4.4836394    5.3198342    3.4690634    4.4907847  
  19 C       1.3853863 *  3.9914084    5.0365521    4.3740439    5.3400826  
  20 C       2.3988826 *  3.4574398    4.3514427    2.2456823 *  3.4639086  
  21 C       3.4701202    3.4644494    3.9848343    1.3926674 *  2.4066043 *
  22 C       3.9788866    5.3220168    5.8854417    3.9950724    4.7087401  
  23 C       4.7026005    5.3220212    5.6132903    3.5800411    3.9875018  
  24 C       4.4943133    4.4869099    4.7003922    2.4076596 *  2.7741411 *
  25 C       3.4594241    5.3160160    5.9438266    5.9453629    6.5038301  
  26 C       3.9764602    5.8731891    6.4476967    5.9454012    6.5025532  
  27 C       2.2414133 *  4.3562094    5.2181450    5.2200901    5.9524158  
  28 C       3.5681384    5.6091455    6.3028141    5.2189135    5.9478038  
  29 C       4.3649518    5.9537277    6.4655113    5.0436602    5.6262778  
  30 C       5.0219865    6.4442416    6.7470214    6.4538005    6.7429467  
  31 C       5.6101739    6.7346260    6.8856129    6.3017808    6.4478795  
  32 C       5.3320551    6.5090618    6.7535193    5.6234160    5.8898653  
  33 C       3.4752218    3.9914866    4.3748622    5.6211165    5.8942131  
  34 C       4.3678714    5.0263724    5.2238725    6.3061086    6.4562263  
  35 C       2.2545458 *  3.5760845    4.3702798    5.0357269    5.6236991  
  36 C       4.3614656    5.6095884    5.9528167    6.4541346    6.7445316  
  37 C       5.2168801    6.2966589    6.4582855    6.7500691    6.8884885  
  38 C       5.2248983    5.2189964    5.0414237    6.4600263    6.3079583  
  39 C       5.9581493    5.9471331    5.6230077    6.7502918    6.4543607  
  40 C       5.9511989    6.4470913    6.3064554    6.8886090    6.7434972  
  41 C       6.4404039    6.7292523    6.5061295    5.8803364    5.6065776  
  42 C       6.3013524    6.8793894    6.7478621    6.4581577    6.3016448  
  43 C       6.4632442    6.7438703    6.4602798    6.7547420    6.4561437  
  44 C       6.7274520    6.4259134    5.9328439    5.6041568    5.0138826  
  45 C       5.9380028    5.6020249    5.3276042    3.9842713    3.5715670  
  46 C       5.6247181    5.9578782    5.9669418    4.3798972    4.3765958  
  47 C       5.8954919    6.5164738    6.5267994    5.3428519    5.3392394  
  48 C       6.4826189    5.8497688    5.3030151    4.6833605    3.9621718  
  49 C       5.9470072    4.3422137    3.4542931    3.4617044    2.2352721 *
  50 C       5.3398379    3.9869700    3.4734946    2.4093065 *  1.3885758 *
  51 C       5.3343166    4.7008170    4.4956656    2.7806408 *  2.4025661 *
  52 C       6.4927988    5.2996397    4.4755267    4.4821322    3.4530198  
  53 C       6.4526589    5.0110316    3.9799792    5.3235629    4.3550660  
  54 C       5.8995858    3.9809312    2.7772944 *  4.4971224    3.4687375  
  55 C       5.6336926    3.5720464    2.4051064 *  3.4774727    2.2538754 *
  56 C       6.7419717    5.6017756    4.7045370    5.3286182    4.3608055  
  57 C       6.7701632    6.4653667    5.9081777    6.5332053    5.9670245  
  58 C       6.4752422    5.9585056    5.3483115    6.5282733    5.9634356  
  59 C       6.3157410    5.2193861    4.3760502    5.9591781    5.2251874  
  60 C       6.8977756    6.3014821    5.6248433    5.9629453    5.2265732  

               16 C         17 C         18 C         19 C         20 C     

   1 C       3.4706634    4.4852272    4.6889840    3.4674493    3.9724862  
   2 C       3.4742506    5.3200587    5.5995854    4.3614684    5.0143062  
   3 C       4.5013232    3.4554291    3.9677599    2.2407776 *  3.5564894  
   4 C       4.4987200    5.3084449    5.8607406    4.3499169    5.5924157  
   5 C       4.7056560    5.9265144    6.4245386    5.2049134    6.2772106  
   6 C       2.4074517 *  5.9423791    5.9346962    5.2190474    5.2025449  
   7 C       2.7802927 *  6.4983152    6.4913127    5.9473156    5.9323893  
   8 C       3.9863103    6.4944207    6.7225364    5.9453884    6.4328800  
   9 C       3.9897523    2.7820666 *  2.4054816 *  2.4126957 *  1.3891201 *
  10 C       2.7829449 *  3.9872697    3.4616299    3.5818636    2.2387682 *
  11 C       4.7211534    2.3959891 *  2.7656081 *  1.3853863 *  2.3988826 *
  12 C       2.4062684 *  4.7009732    4.4836394    3.9914084    3.4574398  
  13 C       1.3892678 *  5.6143896    5.3198342    5.0365521    4.3514427  
  14 C       2.4091481 *  4.3683196    3.4690634    4.3740439    2.2456823 *
  15 C       1.3931184 *  5.3316689    4.4907847    5.3400826    3.4639086  
  16 C       0.0000000    5.8912037    5.3254856    5.6283151    4.3577347  
  17 C       5.8912037    0.0000000    1.3908623 *  1.3879983 *  2.4101279 *
  18 C       5.3254856    1.3908623 *  0.0000000    2.4063141 *  1.3894182 *
  19 C       5.6283151    1.3879983 *  2.4063141 *  0.0000000    2.7831815 *
  20 C       4.3577347    2.4101279 *  1.3894182 *  2.7831815 *  0.0000000  
  21 C       3.5779209    3.5778583    2.4037215 *  3.9954335    1.3862894 *
  22 C       5.6197776    2.2463291 *  1.3877976 *  3.4701218    2.4091397 *
  23 C       5.0310923    3.4713166    2.4040334 *  4.5017459    2.7786552 *
  24 C       3.9867849    3.9901896    2.7762259 *  4.7126614    2.4038691 *
  25 C       6.5067870    2.7690659 *  3.9755849    2.3991956 *  4.6953278  
  26 C       6.7423478    2.3963286 *  3.4573050    2.7737573 *  4.4860277  
  27 C       5.9547429    2.4044350 *  3.5702261    1.3859545 *  3.9837946  
  28 C       6.4568107    1.3865233 *  2.2409885 *  2.4097871 *  3.4662616  
  29 C       6.3177334    2.2548219 *  2.2530258 *  3.4805935    3.4785485  
  30 C       6.8896163    3.5658861    4.3495382    3.9865054    5.3199395  
  31 C       6.7450297    3.9840529    4.3527772    4.7089469    5.3215638  
  32 C       6.4622837    3.4745096    3.4679253    4.5078120    4.4972167  
  33 C       5.3406437    4.4859640    5.3160406    3.4665689    5.3205561  
  34 C       5.9550780    4.6999295    5.6040340    3.9896133    5.8790025  
  35 C       5.3399561    3.4689301    4.3581570    2.2511765 *  4.3599317  
  36 C       6.5128445    3.9777762    5.0139678    3.5730069    5.6047198  
  37 C       6.7507582    4.3561552    5.2062612    4.3640823    5.9421045  
  38 C       5.6251741    5.6068208    6.2886942    5.0302775    6.4447594  
  39 C       5.8910894    5.8835427    6.4428240    5.6225932    6.7381885  
  40 C       6.4554975    5.3217270    5.9348142    5.3321793    6.4988220  
  41 C       5.9474134    5.1999609    5.0045777    5.9415669    5.5948521  
  42 C       6.4564146    5.0259749    5.2096413    5.6197583    5.9441810  
  43 C       6.3073057    5.6204767    5.9475704    5.9004856    6.5097378  
  44 C       5.2040488    5.9299671    5.5913709    6.4964788    5.8640816  
  45 C       4.3659618    5.2017785    4.3401293    5.9429324    4.3431709  
  46 C       5.2374902    4.3686875    3.5745667    5.3448799    3.9928056  
  47 C       5.9670703    4.3678829    3.9853587    5.3447647    4.7080983  
  48 C       4.3398461    5.9225612    5.2966180    6.4888407    5.2958081  
  49 C       2.2323262 *  6.2983426    5.6042826    6.4555621    5.0143574  
  50 C       2.2539718 *  5.6205872    4.7030433    5.9008007    3.9835949  
  51 C       3.4717436    5.0337853    3.9860554    5.6270937    3.5715643  
  52 C       3.4519620    6.4337671    5.8617911    6.7322566    5.5897357  
  53 C       3.5660539    6.8795886    6.7299506    6.7461557    6.4366954  
  54 C       2.4014842 *  6.7501483    6.5049496    6.4663079    5.9422808  
  55 C       1.3864543 *  6.4666338    5.9541134    6.3223547    5.2189442  
  56 C       3.9877455    6.7331740    6.4347271    6.8835975    6.2858764  
  57 C       5.6345559    6.3172058    6.4623043    6.4781312    6.7576319  
  58 C       5.3451459    6.4636115    6.7495331    6.3223668    6.8937865  
  59 C       4.3727896    6.7456281    6.8805058    6.4636388    6.7417907  
  60 C       5.0388153    6.4565042    6.2999861    6.7573306    6.4540790  

               21 C         22 C         23 C         24 C         25 C     

   1 C       4.3545728    5.6019319    5.8754081    5.3171274    4.4791282  
   2 C       5.2124525    6.2925923    6.4466211    5.9411014    4.6924874  
   3 C       4.3520101    5.0125770    5.6032658    5.3169362    3.4580189  
   4 C       5.9370607    6.4329373    6.7299999    6.4940395    3.9657166  
   5 C       6.4389101    6.7221633    6.8674742    6.7262356    4.3394760  
   6 C       5.0235774    6.4467334    6.2966066    5.6070124    5.6040544  
   7 C       5.6093670    6.7354349    6.4449074    5.8768166    5.8705116  
   8 C       6.2911971    6.8701069    6.7301748    6.4367439    5.3134558  
   9 C       2.2510406 *  3.5774531    3.9907003    3.4709466    4.4872237  
  10 C       2.2446464 *  4.3598518    4.3592075    3.4641124    5.3206962  
  11 C       3.4701202    3.9788866    4.7026005    4.4943133    3.4594241  
  12 C       3.4644494    5.3220168    5.3220212    4.4869099    5.3160160  
  13 C       3.9848343    5.8854417    5.6132903    4.7003922    5.9438266  
  14 C       1.3926674 *  3.9950724    3.5800411    2.4076596 *  5.9453629  
  15 C       2.4066043 *  4.7087401    3.9875018    2.7741411 *  6.5038301  
  16 C       3.5779209    5.6197776    5.0310923    3.9867849    6.5067870  
  17 C       3.5778583    2.2463291 *  3.4713166    3.9901896    2.7690659 *
  18 C       2.4037215 *  1.3877976 *  2.4040334 *  2.7762259 *  3.9755849  
  19 C       3.9954335    3.4701218    4.5017459    4.7126614    2.3991956 *
  20 C       1.3862894 *  2.4091397 *  2.7786552 *  2.4038691 *  4.6953278  
  21 C       0.0000000    2.7832003 *  2.4085192 *  1.3887934 *  5.6077432  
  22 C       2.7832003 *  0.0000000    1.3930165 *  2.4127148 *  4.3512695  
  23 C       2.4085192 *  1.3930165 *  0.0000000    1.3928136 *  5.3222512  
  24 C       1.3887934 *  2.4127148 *  1.3928136 *  0.0000000    5.8783454  
  25 C       5.6077432    4.3512695    5.3222512    5.8783454    0.0000000  
  26 C       5.3212142    3.4560593    4.4869391    5.3199231    1.3915694 *
  27 C       5.0287436    4.3608900    5.3321424    5.6159331    1.3911814 *
  28 C       4.3589674    2.2358921 *  3.4629599    4.3574475    2.4110253 *
  29 C       3.9978744    1.3889470 *  2.4105855 *  3.5834074    3.5782099  
  30 C       5.8815365    3.9743535    4.6974048    5.6075795    2.2522412 *
  31 C       5.6102762    3.5651330    3.9796119    5.0208572    3.4731568  
  32 C       4.7086198    2.4013404 *  2.7737039 *  3.9869898    3.9972154  
  33 C       5.9493036    5.9392861    6.5053510    6.5062068    2.7637555 *
  34 C       6.4526220    5.9404919    6.5051562    6.7411054    2.4017314 *
  35 C       5.2211053    5.2163793    5.9532706    5.9520910    2.4030053 *
  36 C       6.2970151    5.2028969    5.9397385    6.4446784    1.3877067 *
  37 C       6.4518870    5.0184064    5.6094167    6.2971780    2.2519217 *
  38 C       6.7464622    6.4430851    6.7396128    6.8826122    3.5664701  
  39 C       6.8869984    6.2943040    6.4472451    6.7398751    3.9904041  
  40 C       6.7408788    5.6021162    5.8759318    6.4434005    3.4721147  
  41 C       5.3161019    3.9684061    3.5563662    4.3470318    5.2059689  
  42 C       5.9498555    4.3588596    4.3604290    5.2151976    4.3624175  
  43 C       6.5150500    5.3309848    5.3308694    5.9500126    4.3723981  
  44 C       5.3161005    4.6929554    3.9769441    4.3499434    5.9260118  
  45 C       3.4583410    3.4551576    2.2304148 *  2.2333416 *  6.2858076  
  46 C       3.4797031    2.4080429 *  1.3878344 *  2.2556885 *  5.6207723  
  47 C       4.5015615    2.7754172 *  2.4006357 *  3.4707508    5.0396471  
  48 C       4.4716156    4.4764600    3.4506096    3.4463258    6.4236852  
  49 C       3.9831070    5.3322765    4.3657921    3.5717819    6.8777525  
  50 C       2.7796105 *  4.5021918    3.4718707    2.4028232 *  6.7458928  
  51 C       2.4066609 *  3.4780875    2.2531866 *  1.3877721 *  6.4527263  
  52 C       4.6920093    5.3175519    4.3528681    3.9747532    6.7198744  
  53 C       5.8802517    6.5049437    5.9453102    5.6069322    6.2921826  
  54 C       5.3309749    6.5153853    5.9539284    5.3284883    6.4553935  
  55 C       4.3729486    5.9654864    5.2318644    4.3715248    6.7527587  
  56 C       5.6104985    5.9399164    5.2095616    5.0207571    6.4350706  
  57 C       6.5291588    5.9001457    5.6288098    5.9631165    5.2305582  
  58 C       6.7601105    6.4613911    6.3108310    6.4618893    5.0378927  
  59 C       6.4589211    6.7450482    6.4539235    6.3020199    5.6119835  
  60 C       5.9595150    5.6205942    5.0352583    5.2240268    5.9469694  

               26 C         27 C         28 C         29 C         30 C     

   1 C       5.3123367    3.4584342    5.3203708    5.9488851    5.9369224  
   2 C       5.6022888    3.9798407    5.8821222    6.4578604    5.9429895  
   3 C       4.3496403    2.2378841 *  4.3543724    5.2158306    5.2101261  
   4 C       5.0069838    3.5582187    5.6012484    6.2957037    5.2036945  
   5 C       5.1926692    4.3489387    5.9323503    6.4428350    5.0108673  
   6 C       6.2912506    5.0239162    6.4501173    6.7534335    6.4498630  
   7 C       6.4371210    5.6076192    6.7375852    6.8900643    6.2930155  
   8 C       5.9311444    5.3235014    6.4986622    6.7417749    5.6033506  
   9 C       4.6988947    3.4655009    3.9881628    4.3740951    5.6103943  
  10 C       5.6058456    4.3604296    5.0250359    5.2249675    6.2968537  
  11 C       3.9764602    2.2414133 *  3.5681384    4.3649518    5.0219865  
  12 C       5.8731891    4.3562094    5.6091455    5.9537277    6.4442416  
  13 C       6.4476967    5.2181450    6.3028141    6.4655113    6.7470214  
  14 C       5.9454012    5.2200901    5.2189135    5.0436602    6.4538005  
  15 C       6.5025532    5.9524158    5.9478038    5.6262778    6.7429467  
  16 C       6.7423478    5.9547429    6.4568107    6.3177334    6.8896163  
  17 C       2.3963286 *  2.4044350 *  1.3865233 *  2.2548219 *  3.5658861  
  18 C       3.4573050    3.5702261    2.2409885 *  2.2530258 *  4.3495382  
  19 C       2.7737573 *  1.3859545 *  2.4097871 *  3.4805935    3.9865054  
  20 C       4.4860277    3.9837946    3.4662616    3.4785485    5.3199395  
  21 C       5.3212142    5.0287436    4.3589674    3.9978744    5.8815365  
  22 C       3.4560593    4.3608900    2.2358921 *  1.3889470 *  3.9743535  
  23 C       4.4869391    5.3321424    3.4629599    2.4105855 *  4.6974048  
  24 C       5.3199231    5.6159331    4.3574475    3.5834074    5.6075795  
  25 C       1.3915694 *  1.3911814 *  2.4110253 *  3.5782099    2.2522412 *
  26 C       0.0000000    2.4122165 *  1.3897368 *  2.4040424 *  1.3877388 *
  27 C       2.4122165 *  0.0000000    2.7900447 *  4.0016322    3.4787543  
  28 C       1.3897368 *  2.7900447 *  0.0000000    1.3871504 *  2.4042922 *
  29 C       2.4040424 *  4.0016322    1.3871504 *  0.0000000    2.7739205 *
  30 C       1.3877388 *  3.4787543    2.4042922 *  2.7739205 *  0.0000000  
  31 C       2.4072080 *  4.5063204    2.7791225 *  2.4047724 *  1.3894942 *
  32 C       2.7840532 *  4.7238547    2.4098972 *  1.3899417 *  2.4101139 *
  33 C       3.9760311    2.3985271 *  4.7033615    5.6179485    4.3567164  
  34 C       3.4650096    2.7831748 *  4.4985545    5.3338925    3.4693842  
  35 C       3.5752728    1.3867413 *  3.9960470    5.0419036    4.3681241  
  36 C       2.2423584 *  2.4134649 *  3.4688771    4.3606905    2.2453890 *
  37 C       2.2475183 *  3.4800328    3.4719648    3.9889916    1.3918731 *
  38 C       4.3520965    3.9910657    5.3270248    5.8884372    3.9818995  
  39 C       4.3608994    4.7181943    5.3325578    5.6201313    3.5775341  
  40 C       3.4664409    4.5067831    4.4952654    4.7047270    2.4064052 *
  41 C       4.3471187    5.9468291    4.3460820    3.4573655    3.4601954  
  42 C       3.5728781    5.3383639    3.9890157    3.4742213    2.4061032 *
  43 C       3.9959246    5.3477089    4.7172729    4.5089653    2.7909893 *
  44 C       5.3063726    6.4960554    5.3114385    4.4899495    4.4787851  
  45 C       5.5955170    6.4469006    5.0093633    3.9796163    5.3155046  
  46 C       4.7061237    5.9036041    3.9869954    2.7832945 *  4.4976594  
  47 C       3.9933089    5.6359700    3.5770068    2.4091947 *  3.4777572  
  48 C       5.8579210    6.7238101    5.5898204    4.6951470    5.3086579  
  49 C       6.7376585    6.7434526    6.4511064    5.8999789    6.5097298  
  50 C       6.5080688    6.4627140    5.9515416    5.3439173    6.5130549  
  51 C       5.9472125    6.3103110    5.2182633    4.3767295    5.9511846  
  52 C       6.4285455    6.8701322    6.2835171    5.6117920    5.9321291  
  53 C       6.4444561    6.4511276    6.7428700    6.5183441    5.8870433  
  54 C       6.7485647    6.3111712    6.8960791    6.7656154    6.4641039  
  55 C       6.8958601    6.4676963    6.7612076    6.4817897    6.7611271  
  56 C       6.2827608    6.7387834    6.4411362    5.9484116    5.6017274  
  57 C       5.0395261    5.9747034    5.6327812    5.3518841    4.0018696  
  58 C       5.2243161    5.6359128    5.9635524    5.9684717    4.3737633  
  59 C       5.9446151    5.8948520    6.5130058    6.5207135    5.3299319  
  60 C       5.6116509    6.5196996    5.8905292    5.3421608    4.7060998  

               31 C         32 C         33 C         34 C         35 C     

   1 C       6.4956676    6.5063334    2.7797330 *  3.9837968    2.4027757 *
   2 C       6.5015446    6.7486023    2.4113555 *  3.4688363    2.7765525 *
   3 C       5.9412412    5.9488810    2.4152643 *  3.5818163    1.3930232 *
   4 C       5.9341727    6.4483497    1.3868103 *  2.2422013 *  2.3954070 *
   5 C       5.5942758    6.2917263    2.2454384 *  2.2367417 *  3.4633137  
   6 C       6.7394384    6.8919765    3.5824385    4.3637257    3.9896182  
   7 C       6.4412944    6.7455311    3.9888394    4.3561292    4.7041908  
   8 C       5.8697778    6.4470683    3.4733927    3.4648931    4.4968716  
   9 C       5.8834308    5.3356680    4.4927063    5.3267577    3.4689912  
  10 C       6.4471647    5.9517778    4.7114192    5.6173162    3.9928258  
  11 C       5.6101739    5.3320551    3.4752218    4.3678714    2.2545458 *
  12 C       6.7346260    6.5090618    3.9914866    5.0263724    3.5760845  
  13 C       6.8856129    6.7535193    4.3748622    5.2238725    4.3702798  
  14 C       6.3017808    5.6234160    5.6211165    6.3061086    5.0357269  
  15 C       6.4478795    5.8898653    5.8942131    6.4562263    5.6236991  
  16 C       6.7450297    6.4622837    5.3406437    5.9550780    5.3399561  
  17 C       3.9840529    3.4745096    4.4859640    4.6999295    3.4689301  
  18 C       4.3527772    3.4679253    5.3160406    5.6040340    4.3581570  
  19 C       4.7089469    4.5078120    3.4665689    3.9896133    2.2511765 *
  20 C       5.3215638    4.4972167    5.3205561    5.8790025    4.3599317  
  21 C       5.6102762    4.7086198    5.9493036    6.4526220    5.2211053  
  22 C       3.5651330    2.4013404 *  5.9392861    5.9404919    5.2163793  
  23 C       3.9796119    2.7737039 *  6.5053510    6.5051562    5.9532706  
  24 C       5.0208572    3.9869898    6.5062068    6.7411054    5.9520910  
  25 C       3.4731568    3.9972154    2.7637555 *  2.4017314 *  2.4030053 *
  26 C       2.4072080 *  2.7840532 *  3.9760311    3.4650096    3.5752728  
  27 C       4.5063204    4.7238547    2.3985271 *  2.7831748 *  1.3867413 *
  28 C       2.7791225 *  2.4098972 *  4.7033615    4.4985545    3.9960470  
  29 C       2.4047724 *  1.3899417 *  5.6179485    5.3338925    5.0419036  
  30 C       1.3894942 *  2.4101139 *  4.3567164    3.4693842    4.3681241  
  31 C       0.0000000    1.3931531 *  5.3234882    4.4935490    5.3356146  
  32 C       1.3931531 *  0.0000000    5.8916505    5.3364766    5.6309316  
  33 C       5.3234882    5.8916505    0.0000000    1.3884528 *  1.3880783 *
  34 C       4.4935490    5.3364766    1.3884528 *  0.0000000    2.4133746 *
  35 C       5.3356146    5.6309316    1.3880783 *  2.4133746 *  0.0000000  
  36 C       3.4650999    4.3653915    2.4022756 *  1.3904470 *  2.7855891 *
  37 C       2.4057855 *  3.5814074    3.5712434    2.4057723 *  3.9958590  
  38 C       4.6972123    5.6175299    2.2545497 *  1.3872801 *  3.4782494  
  39 C       3.9837497    5.0334915    3.4778363    2.4124092 *  4.5097784  
  40 C       2.7713588 *  3.9885043    3.9903931    2.7823861 *  4.7169070  
  41 C       2.2353224 *  2.2342828 *  6.2942810    5.6088714    6.4522206  
  42 C       1.3881370 *  2.2554104 *  5.6105140    4.7018520    5.8936051  
  43 C       2.4131871 *  3.4834122    5.0330719    3.9921636    5.6309981  
  44 C       3.4527582    3.4617127    6.4309637    5.8630953    6.7314763  
  45 C       4.3476750    3.5615498    6.8812698    6.7382716    6.7437909  
  46 C       3.4682111    2.4024440 *  6.7592818    6.5219960    6.4737989  
  47 C       2.2539722 *  1.3879878 *  6.4684654    5.9651672    6.3247177  
  48 C       4.3435585    3.9752403    6.7197395    6.4271613    6.8660869  
  49 C       5.9490765    5.6242127    6.2986373    6.4484534    6.4519382  
  50 C       5.9494489    5.3361637    6.4649167    6.7542646    6.3156412  
  51 C       5.2174922    4.3687000    6.7519384    6.8921948    6.4641814  
  52 C       5.2005238    5.0217004    6.4327048    6.2789807    6.7293856  
  53 C       5.6130592    5.9565146    5.2146882    5.0233701    5.9483032  
  54 C       6.3091414    6.4699555    5.0414325    5.2265165    5.6268705  
  55 C       6.4662963    6.3251020    5.6305593    5.9613638    5.9028507  
  56 C       5.0122699    5.2118101    5.9403670    5.6007232    6.5055755  
  57 C       3.5833563    4.3818786    5.2329620    4.3734456    5.9748379  
  58 C       4.3678855    5.2336718    4.3781555    3.5849864    5.3515185  
  59 C       5.3250887    5.9568784    4.3714496    3.9892854    5.3409741  
  60 C       3.9846935    4.3710200    5.9510982    5.3257917    6.5203986  

               36 C         37 C         38 C         39 C         40 C     

   1 C       4.6985952    5.6065998    4.3626812    5.3262887    5.8790362  
   2 C       4.4929323    5.3261132    3.4764648    4.4992222    5.3284999  
   3 C       3.9887169    5.0279451    4.3724724    5.3381827    5.6172957  
   4 C       3.4602268    4.3532032    2.2552932 *  3.4734464    4.3595206  
   5 C       3.4558308    3.9730333    1.3886049 *  2.4011970 *  3.5651716  
   6 C       5.3280132    5.8864943    3.9973234    4.7102802    5.6160540  
   7 C       5.3210027    5.6082122    3.5766013    3.9837527    5.0224697  
   8 C       4.4881574    4.6970686    2.4088521 *  2.7723055 *  3.9799665  
   9 C       5.3244261    5.9471894    5.9477417    6.5094099    6.5059042  
  10 C       5.8847344    6.4527527    5.9544196    6.5124558    6.7436842  
  11 C       4.3614656    5.2168801    5.2248983    5.9581493    5.9511989  
  12 C       5.6095884    6.2966589    5.2189964    5.9471331    6.4470913  
  13 C       5.9528167    6.4582855    5.0414237    5.6230077    6.3064554  
  14 C       6.4541346    6.7500691    6.4600263    6.7502918    6.8886090  
  15 C       6.7445316    6.8884885    6.3079583    6.4543607    6.7434972  
  16 C       6.5128445    6.7507582    5.6251741    5.8910894    6.4554975  
  17 C       3.9777762    4.3561552    5.6068208    5.8835427    5.3217270  
  18 C       5.0139678    5.2062612    6.2886942    6.4428240    5.9348142  
  19 C       3.5730069    4.3640823    5.0302775    5.6225932    5.3321793  
  20 C       5.6047198    5.9421045    6.4447594    6.7381885    6.4988220  
  21 C       6.2970151    6.4518870    6.7464622    6.8869984    6.7408788  
  22 C       5.2028969    5.0184064    6.4430851    6.2943040    5.6021162  
  23 C       5.9397385    5.6094167    6.7396128    6.4472451    5.8759318  
  24 C       6.4446784    6.2971780    6.8826122    6.7398751    6.4434005  
  25 C       1.3877067 *  2.2519217 *  3.5664701    3.9904041    3.4721147  
  26 C       2.2423584 *  2.2475183 *  4.3520965    4.3608994    3.4664409  
  27 C       2.4134649 *  3.4800328    3.9910657    4.7181943    4.5067831  
  28 C       3.4688771    3.4719648    5.3270248    5.3325578    4.4952654  
  29 C       4.3606905    3.9889916    5.8884372    5.6201313    4.7047270  
  30 C       2.2453890 *  1.3918731 *  3.9818995    3.5775341    2.4064052 *
  31 C       3.4650999    2.4057855 *  4.6972123    3.9837497    2.7713588 *
  32 C       4.3653915    3.5814074    5.6175299    5.0334915    3.9885043  
  33 C       2.4022756 *  3.5712434    2.2545497 *  3.4778363    3.9903931  
  34 C       1.3904470 *  2.4057723 *  1.3872801 *  2.4124092 *  2.7823861 *
  35 C       2.7855891 *  3.9958590    3.4782494    4.5097784    4.7169070  
  36 C       0.0000000    1.3874930 *  2.4018989 *  2.7837876 *  2.4082656 *
  37 C       1.3874930 *  0.0000000    2.7714799 *  2.4092897 *  1.3903757 *
  38 C       2.4018989 *  2.7714799 *  0.0000000    1.3898864 *  2.4036275 *
  39 C       2.7837876 *  2.4092897 *  1.3898864 *  0.0000000    1.3922507 *
  40 C       2.4082656 *  1.3903757 *  2.4036275 *  1.3922507 *  0.0000000  
  41 C       5.0168246    3.9827471    5.3234642    4.3598846    3.5680817  
  42 C       3.9812484    2.7754438 *  4.4864034    3.4619626    2.3949528 *
  43 C       3.5799885    2.4150719 *  3.4659156    2.2437176 *  1.3875008 *
  44 C       5.5895725    4.6871582    5.3049291    4.3377401    3.9632150  
  45 C       6.4393605    5.8781185    6.5054830    5.9442290    5.6045621  
  46 C       5.9540040    5.3368716    6.5217661    5.9597861    5.3328185  
  47 C       5.2264405    4.3759975    5.9636488    5.2323365    4.3720282  
  48 C       6.2735365    5.5950602    5.9255973    5.1944899    5.0056478  
  49 C       6.7399674    6.5106134    5.8857974    5.6124705    5.9473309  
  50 C       6.8914657    6.7529015    6.4642480    6.3083345    6.4563842  
  51 C       6.7468020    6.4583835    6.7512921    6.4563987    6.3019570  
  52 C       6.4290229    5.9318012    5.5950505    5.0066553    5.1964711  
  53 C       5.6105100    5.3301965    3.9879551    3.5728725    4.3633458  
  54 C       5.9581756    5.9619132    4.3783106    4.3738920    5.2288069  
  55 C       6.5218147    6.5261401    5.3452789    5.3412591    5.9623542  
  56 C       5.8698215    5.3157846    4.6940230    3.9699787    4.3450227  
  57 C       4.3726842    3.4807694    3.4754937    2.2476310 *  2.2510690 *
  58 C       3.9978295    3.4794325    2.4136360 *  1.3897810 *  2.2543443 *
  59 C       4.7064120    4.4964600    2.7823338 *  2.4014320 *  3.4679543  
  60 C       5.3241013    4.4933308    4.4900816    3.4573437    3.4587876  

               41 C         42 C         43 C         44 C         45 C     

   1 C       6.8680473    6.7337054    6.4487193    6.7139255    6.2852990  
   2 C       6.7363287    6.5039048    5.9497475    6.4283537    6.4461614  
   3 C       6.7303664    6.4483662    6.3080024    6.8616034    6.4365317  
   4 C       6.4393815    5.9371175    5.2138309    6.2722645    6.7324707  
   5 C       5.8701637    5.3104223    4.3503962    5.5806384    6.4944659  
   6 C       6.5045775    6.5068652    5.9509536    5.9283645    5.8840251  
   7 C       5.9432757    5.9407569    5.2109146    5.1943103    5.6138688  
   8 C       5.6030973    5.3137418    4.3501757    4.9964170    5.9391004  
   9 C       6.2884162    6.4527666    6.7512588    6.4338944    5.2053023  
  10 C       6.4397195    6.7440260    6.8920163    6.2816376    5.0166364  
  11 C       6.4404039    6.3013524    6.4632442    6.7274520    5.9380028  
  12 C       6.7292523    6.8793894    6.7438703    6.4259134    5.6020249  
  13 C       6.5061295    6.7478621    6.4602798    5.9328439    5.3276042  
  14 C       5.8803364    6.4581577    6.7547420    5.6041568    3.9842713  
  15 C       5.6065776    6.3016448    6.4561437    5.0138826    3.5715670  
  16 C       5.9474134    6.4564146    6.3073057    5.2040488    4.3659618  
  17 C       5.1999609    5.0259749    5.6204767    5.9299671    5.2017785  
  18 C       5.0045777    5.2096413    5.9475704    5.5913709    4.3401293  
  19 C       5.9415669    5.6197583    5.9004856    6.4964788    5.9429324  
  20 C       5.5948521    5.9441810    6.5097378    5.8640816    4.3431709  
  21 C       5.3161019    5.9498555    6.5150500    5.3161005    3.4583410  
  22 C       3.9684061    4.3588596    5.3309848    4.6929554    3.4551576  
  23 C       3.5563662    4.3604290    5.3308694    3.9769441    2.2304148 *
  24 C       4.3470318    5.2151976    5.9500126    4.3499434    2.2333416 *
  25 C       5.2059689    4.3624175    4.3723981    5.9260118    6.2858076  
  26 C       4.3471187    3.5728781    3.9959246    5.3063726    5.5955170  
  27 C       5.9468291    5.3383639    5.3477089    6.4960554    6.4469006  
  28 C       4.3460820    3.9890157    4.7172729    5.3114385    5.0093633  
  29 C       3.4573655    3.4742213    4.5089653    4.4899495    3.9796163  
  30 C       3.4601954    2.4061032 *  2.7909893 *  4.4787851    5.3155046  
  31 C       2.2353224 *  1.3881370 *  2.4131871 *  3.4527582    4.3476750  
  32 C       2.2342828 *  2.2554104 *  3.4834122    3.4617127    3.5615498  
  33 C       6.2942810    5.6105140    5.0330719    6.4309637    6.8812698  
  34 C       5.6088714    4.7018520    3.9921636    5.8630953    6.7382716  
  35 C       6.4522206    5.8936051    5.6309981    6.7314763    6.7437909  
  36 C       5.0168246    3.9812484    3.5799885    5.5895725    6.4393605  
  37 C       3.9827471    2.7754438 *  2.4150719 *  4.6871582    5.8781185  
  38 C       5.3234642    4.4864034    3.4659156    5.3049291    6.5054830  
  39 C       4.3598846    3.4619626    2.2437176 *  4.3377401    5.9442290  
  40 C       3.5680817    2.3949528 *  1.3875008 *  3.9632150    5.6045621  
  41 C       0.0000000    1.3927880 *  2.4139155 *  1.3933048 *  2.7698953 *
  42 C       1.3927880 *  0.0000000    1.3905333 *  2.3966261 *  3.9857449  
  43 C       2.4139155 *  1.3905333 *  0.0000000    2.7628611 *  4.7071309  
  44 C       1.3933048 *  2.3966261 *  2.7628611 *  0.0000000    2.4112281 *
  45 C       2.7698953 *  3.9857449    4.7071309    2.4112281 *  0.0000000  
  46 C       2.3991436 *  3.4784773    4.5104713    2.7862236 *  1.3872104 *
  47 C       1.3879686 *  2.2660225 *  3.4918472    2.4160971 *  2.4013717 *
  48 C       2.4043695 *  3.5676916    3.9772717    1.3931950 *  1.3913401 *
  49 C       4.5058042    5.3371159    5.3349555    3.4740278    2.7989689 *
  50 C       4.7057253    5.6218154    5.8955742    3.9844122    2.4111639 *
  51 C       3.9855995    5.0357653    5.6238881    3.5742926    1.3907679 *
  52 C       3.4703175    4.3549257    4.3502903    2.2453584 *  2.4200103 *
  53 C       4.5073792    4.7101063    3.9905103    3.4640278    4.5062212  
  54 C       5.3428156    5.6267018    5.0405237    4.3591319    4.7199345  
  55 C       5.3466149    5.9042808    5.6316528    4.3669209    4.0106568  
  56 C       3.4703182    3.9771374    3.5593807    2.2364631 *  3.4802993  
  57 C       2.7979843 *  2.4125073 *  1.3878409 *  2.4016997 *  4.5144766  
  58 C       4.0005344    3.4727175    2.2480473 *  3.5634972    5.3421577  
  59 C       4.7110069    4.4924578    3.4640377    3.9713994    5.3374256  
  60 C       2.4217522 *  2.7771957 *  2.3955421 *  1.3894245 *  3.4898402  

               46 C         47 C         48 C         49 C         50 C     

   1 C       6.4586898    6.7503093    6.4132178    5.1968819    5.0272716  
   2 C       6.7591683    6.9009244    6.2705695    5.0148159    5.2223073  
   3 C       6.3070470    6.4597733    6.7105122    5.9364283    5.6165760  
   4 C       6.8926808    6.7529921    6.4189717    5.6021152    5.9510846  
   5 C       6.7464646    6.4560715    5.9131124    5.3150339    5.9479142  
   6 C       6.4690256    6.7614570    5.5872746    3.9735228    4.3672299  
   7 C       6.3152679    6.4662832    5.0023457    3.5639511    4.3680340  
   8 C       6.4581905    6.3084169    5.1838486    4.3478194    5.2160935  
   9 C       5.0406540    5.6250550    5.9193074    5.2060512    4.3656911  
  10 C       5.2272962    5.9572532    5.5835527    4.3491225    3.5760608  
  11 C       5.6247181    5.8954919    6.4826189    5.9470072    5.3398379  
  12 C       5.9578782    6.5164738    5.8497688    4.3422137    3.9869700  
  13 C       5.9669418    6.5267994    5.3030151    3.4542931    3.4734946  
  14 C       4.3798972    5.3428519    4.6833605    3.4617044    2.4093065 *
  15 C       4.3765958    5.3392394    3.9621718    2.2352721 *  1.3885758 *
  16 C       5.2374902    5.9670703    4.3398461    2.2323262 *  2.2539718 *
  17 C       4.3686875    4.3678829    5.9225612    6.2983426    5.6205872  
  18 C       3.5745667    3.9853587    5.2966180    5.6042826    4.7030433  
  19 C       5.3448799    5.3447647    6.4888407    6.4555621    5.9008007  
  20 C       3.9928056    4.7080983    5.2958081    5.0143574    3.9835949  
  21 C       3.4797031    4.5015615    4.4716156    3.9831070    2.7796105 *
  22 C       2.4080429 *  2.7754172 *  4.4764600    5.3322765    4.5021918  
  23 C       1.3878344 *  2.4006357 *  3.4506096    4.3657921    3.4718707  
  24 C       2.2556885 *  3.4707508    3.4463258    3.5717819    2.4028232 *
  25 C       5.6207723    5.0396471    6.4236852    6.8777525    6.7458928  
  26 C       4.7061237    3.9933089    5.8579210    6.7376585    6.5080688  
  27 C       5.9036041    5.6359700    6.7238101    6.7434526    6.4627140  
  28 C       3.9869954    3.5770068    5.5898204    6.4511064    5.9515416  
  29 C       2.7832945 *  2.4091947 *  4.6951470    5.8999789    5.3439173  
  30 C       4.4976594    3.4777572    5.3086579    6.5097298    6.5130549  
  31 C       3.4682111    2.2539722 *  4.3435585    5.9490765    5.9494489  
  32 C       2.4024440 *  1.3879878 *  3.9752403    5.6242127    5.3361637  
  33 C       6.7592818    6.4684654    6.7197395    6.2986373    6.4649167  
  34 C       6.5219960    5.9651672    6.4271613    6.4484534    6.7542646  
  35 C       6.4737989    6.3247177    6.8660869    6.4519382    6.3156412  
  36 C       5.9540040    5.2264405    6.2735365    6.7399674    6.8914657  
  37 C       5.3368716    4.3759975    5.5950602    6.5106134    6.7529015  
  38 C       6.5217661    5.9636488    5.9255973    5.8857974    6.4642480  
  39 C       5.9597861    5.2323365    5.1944899    5.6124705    6.3083345  
  40 C       5.3328185    4.3720282    5.0056478    5.9473309    6.4563842  
  41 C       2.3991436 *  1.3879686 *  2.4043695 *  4.5058042    4.7057253  
  42 C       3.4784773    2.2660225 *  3.5676916    5.3371159    5.6218154  
  43 C       4.5104713    3.4918472    3.9772717    5.3349555    5.8955742  
  44 C       2.7862236 *  2.4160971 *  1.3931950 *  3.4740278    3.9844122  
  45 C       1.3872104 *  2.4013717 *  1.3913401 *  2.7989689 *  2.4111639 *
  46 C       0.0000000    1.3848312 *  2.4092384 *  4.0139249    3.4876171  
  47 C       1.3848312 *  0.0000000    2.7816402 *  4.7288813    4.5100802  
  48 C       2.4092384 *  2.7816402 *  0.0000000    2.4045326 *  2.7629122 *
  49 C       4.0139249    4.7288813    2.4045326 *  0.0000000    1.3916356 *
  50 C       3.4876171    4.5100802    2.7629122 *  1.3916356 *  0.0000000  
  51 C       2.2662876 *  3.4811579    2.3935053 *  2.4120205 *  1.3863446 *
  52 C       3.5882252    3.9980592    1.3873014 *  1.3915835 *  2.4018889 *
  53 C       5.3490374    5.3517544    3.4612319    2.7756064 *  3.9912554  
  54 C       5.6424376    5.9157270    3.9780156    2.3995230 *  3.4777333  
  55 C       5.0640503    5.6494501    3.5716443    1.3872261 *  2.2646870 *
  56 C       4.3753467    4.3735935    2.2433149 *  2.4182320 *  3.5828338  
  57 C       4.7347084    4.0198664    3.4735639    4.5164520    5.3529796  
  58 C       5.6409368    5.0571955    4.3562876    4.7179476    5.6349983  
  59 C       5.9069181    5.6364614    4.3489251    3.9922804    5.0423879  
  60 C       4.0120839    3.5994564    2.2586145 *  3.4904269    4.3806297  

               51 C         52 C         53 C         54 C         55 C     

   1 C       5.6087069    5.9162033    5.1986582    4.3573117    4.3611731  
   2 C       5.9490459    5.5889411    4.3508758    3.5762614    3.9911749  
   3 C       5.8824816    6.4832222    5.9419331    5.3351857    5.3374922  
   4 C       6.5048083    5.8585044    4.3546002    3.9949490    4.7120201  
   5 C       6.5013804    5.2981393    3.4599735    3.4763302    4.4997918  
   6 C       5.3288040    4.6827076    3.4589735    2.4049412 *  2.7777170 *
   7 C       5.3285800    3.9651762    2.2363713 *  1.3918423 *  2.4080012 *
   8 C       5.9421331    4.3318831    2.2338012 *  2.2523333 *  3.4703082  
   9 C       4.3648590    5.9270891    6.2899148    5.6132128    5.0341762  
  10 C       3.9853022    5.3069936    5.6050787    4.7059154    3.9931348  
  11 C       5.3343166    6.4927988    6.4526589    5.8995858    5.6336926  
  12 C       4.7008170    5.2996397    5.0110316    3.9809312    3.5720464  
  13 C       4.4956656    4.4755267    3.9799792    2.7772944 *  2.4051064 *
  14 C       2.7806408 *  4.4821322    5.3235629    4.4971224    3.4774727  
  15 C       2.4025661 *  3.4530198    4.3550660    3.4687375    2.2538754 *
  16 C       3.4717436    3.4519620    3.5660539    2.4014842 *  1.3864543 *
  17 C       5.0337853    6.4337671    6.8795886    6.7501483    6.4666338  
  18 C       3.9860554    5.8617911    6.7299506    6.5049496    5.9541134  
  19 C       5.6270937    6.7322566    6.7461557    6.4663079    6.3223547  
  20 C       3.5715643    5.5897357    6.4366954    5.9422808    5.2189442  
  21 C       2.4066609 *  4.6920093    5.8802517    5.3309749    4.3729486  
  22 C       3.4780875    5.3175519    6.5049437    6.5153853    5.9654864  
  23 C       2.2531866 *  4.3528681    5.9453102    5.9539284    5.2318644  
  24 C       1.3877721 *  3.9747532    5.6069322    5.3284883    4.3715248  
  25 C       6.4527263    6.7198744    6.2921826    6.4553935    6.7527587  
  26 C       5.9472125    6.4285455    6.4444561    6.7485647    6.8958601  
  27 C       6.3103110    6.8701322    6.4511276    6.3111712    6.4676963  
  28 C       5.2182633    6.2835171    6.7428700    6.8960791    6.7612076  
  29 C       4.3767295    5.6117920    6.5183441    6.7656154    6.4817897  
  30 C       5.9511846    5.9321291    5.8870433    6.4641039    6.7611271  
  31 C       5.2174922    5.2005238    5.6130592    6.3091414    6.4662963  
  32 C       4.3687000    5.0217004    5.9565146    6.4699555    6.3251020  
  33 C       6.7519384    6.4327048    5.2146882    5.0414325    5.6305593  
  34 C       6.8921948    6.2789807    5.0233701    5.2265165    5.9613638  
  35 C       6.4641814    6.7293856    5.9483032    5.6268705    5.9028507  
  36 C       6.7468020    6.4290229    5.6105100    5.9581756    6.5218147  
  37 C       6.4583835    5.9318012    5.3301965    5.9619132    6.5261401  
  38 C       6.7512921    5.5950505    3.9879551    4.3783106    5.3452789  
  39 C       6.4563987    5.0066553    3.5728725    4.3738920    5.3412591  
  40 C       6.3019570    5.1964711    4.3633458    5.2288069    5.9623542  
  41 C       3.9855995    3.4703175    4.5073792    5.3428156    5.3466149  
  42 C       5.0357653    4.3549257    4.7101063    5.6267018    5.9042808  
  43 C       5.6238881    4.3502903    3.9905103    5.0405237    5.6316528  
  44 C       3.5742926    2.2453584 *  3.4640278    4.3591319    4.3669209  
  45 C       1.3907679 *  2.4200103 *  4.5062212    4.7199345    4.0106568  
  46 C       2.2662876 *  3.5882252    5.3490374    5.6424376    5.0640503  
  47 C       3.4811579    3.9980592    5.3517544    5.9157270    5.6494501  
  48 C       2.3935053 *  1.3873014 *  3.4612319    3.9780156    3.5716443  
  49 C       2.4120205 *  1.3915835 *  2.7756064 *  2.3995230 *  1.3872261 *
  50 C       1.3863446 *  2.4018889 *  3.9912554    3.4777333    2.2646870 *
  51 C       0.0000000    2.7768214 *  4.7083754    4.5027416    3.4845956  
  52 C       2.7768214 *  0.0000000    2.3950356 *  2.7673286 *  2.4035679 *
  53 C       4.7083754    2.3950356 *  0.0000000    1.3898622 *  2.4065491 *
  54 C       4.5027416    2.7673286 *  1.3898622 *  0.0000000    1.3858467 *
  55 C       3.4845956    2.4035679 *  2.4065491 *  1.3858467 *  0.0000000  
  56 C       3.9922039    1.3884615 *  1.3929297 *  2.4150705 *  2.7928060 *
  57 C       5.3516239    3.4719099    2.7946101 *  4.0131494    4.7355124  
  58 C       5.9039458    3.9807254    2.4157714 *  3.4916575    4.5191949  
  59 C       5.6245844    3.5616626    1.3929861 *  2.2676885 *  3.4860351  
  60 C       4.3800380    2.2566686 *  2.4175482 *  3.5918108    4.0115535  

               56 C         57 C         58 C         59 C         60 C     

   1 C       5.9317751    6.3108261    5.6221629    5.0285736    6.4483952  
   2 C       5.3188899    5.6288100    4.7185139    3.9946801    5.8872672  
   3 C       6.4991266    6.4725257    5.9053494    5.6254409    6.7489922  
   4 C       5.3161324    5.0385698    3.9998033    3.5826173    5.6111119  
   5 C       4.4777611    3.9884361    2.7815420 *  2.4077490 *  4.6940292  
   6 C       4.4902360    5.3449664    4.5102126    3.4799293    5.3332021  
   7 C       3.4624509    4.3704039    3.4759839    2.2543843 *  4.3613503  
   8 C       3.4511848    3.5736442    2.4058481 *  1.3878377 *  3.9752716  
   9 C       6.4431260    6.9058080    6.7587481    6.4561233    6.7521253  
  10 C       5.8796399    6.7648663    6.5254927    5.9569644    6.4603439  
  11 C       6.7419717    6.7701632    6.4752422    6.3157410    6.8977756  
  12 C       5.6017756    6.4653667    5.9585056    5.2193861    6.3014821  
  13 C       4.7045370    5.9081777    5.3483115    4.3760502    5.6248433  
  14 C       5.3286182    6.5332053    6.5282733    5.9591781    5.9629453  
  15 C       4.3608055    5.9670245    5.9634356    5.2251874    5.2265732  
  16 C       3.9877455    5.6345559    5.3451459    4.3727896    5.0388153  
  17 C       6.7331740    6.3172058    6.4636115    6.7456281    6.4565042  
  18 C       6.4347271    6.4623043    6.7495331    6.8805058    6.2999861  
  19 C       6.8835975    6.4781312    6.3223668    6.4636388    6.7573306  
  20 C       6.2858764    6.7576319    6.8937865    6.7417907    6.4540790  
  21 C       5.6104985    6.5291588    6.7601105    6.4589211    5.9595150  
  22 C       5.9399164    5.9001457    6.4613911    6.7450482    5.6205942  
  23 C       5.2095616    5.6288098    6.3108310    6.4539235    5.0352583  
  24 C       5.0207571    5.9631165    6.4618893    6.3020199    5.2240268  
  25 C       6.4350706    5.2305582    5.0378927    5.6119835    5.9469694  
  26 C       6.2827608    5.0395261    5.2243161    5.9446151    5.6116509  
  27 C       6.7387834    5.9747034    5.6359128    5.8948520    6.5196996  
  28 C       6.4411362    5.6327812    5.9635524    6.5130058    5.8905292  
  29 C       5.9484116    5.3518841    5.9684717    6.5207135    5.3421608  
  30 C       5.6017274    4.0018696    4.3737633    5.3299319    4.7060998  
  31 C       5.0122699    3.5833563    4.3678855    5.3250887    3.9846935  
  32 C       5.2118101    4.3818786    5.2336718    5.9568784    4.3710200  
  33 C       5.9403670    5.2329620    4.3781555    4.3714496    5.9510982  
  34 C       5.6007232    4.3734456    3.5849864    3.9892854    5.3257917  
  35 C       6.5055755    5.9748379    5.3515185    5.3409741    6.5203986  
  36 C       5.8698215    4.3726842    3.9978295    4.7064120    5.3241013  
  37 C       5.3157846    3.4807694    3.4794325    4.4964600    4.4933308  
  38 C       4.6940230    3.4754937    2.4136360 *  2.7823338 *  4.4900816  
  39 C       3.9699787    2.2476310 *  1.3897810 *  2.4014320 *  3.4573437  
  40 C       4.3450227    2.2510690 *  2.2543443 *  3.4679543    3.4587876  
  41 C       3.4703182    2.7979843 *  4.0005344    4.7110069    2.4217522 *
  42 C       3.9771374    2.4125073 *  3.4727175    4.4924578    2.7771957 *
  43 C       3.5593807    1.3878409 *  2.2480473 *  3.4640377    2.3955421 *
  44 C       2.2364631 *  2.4016997 *  3.5634972    3.9713994    1.3894245 *
  45 C       3.4802993    4.5144766    5.3421577    5.3374256    3.4898402  
  46 C       4.3753467    4.7347084    5.6409368    5.9069181    4.0120839  
  47 C       4.3735935    4.0198664    5.0571955    5.6364614    3.5994564  
  48 C       2.2433149 *  3.4735639    4.3562876    4.3489251    2.2586145 *
  49 C       2.4182320 *  4.5164520    4.7179476    3.9922804    3.4904269  
  50 C       3.5828338    5.3529796    5.6349983    5.0423879    4.3806297  
  51 C       3.9922039    5.3516239    5.9039458    5.6245844    4.3800380  
  52 C       1.3884615 *  3.4719099    3.9807254    3.5616626    2.2566686 *
  53 C       1.3929297 *  2.7946101 *  2.4157714 *  1.3929861 *  2.4175482 *
  54 C       2.4150705 *  4.0131494    3.4916575    2.2676885 *  3.5918108  
  55 C       2.7928060 *  4.7355124    4.5191949    3.4860351    4.0115535  
  56 C       0.0000000    2.4029705 *  2.7711069 *  2.3982268 *  1.3887095 *
  57 C       2.4029705 *  0.0000000    1.3923275 *  2.4088072 *  1.3844686 *
  58 C       2.7711069 *  1.3923275 *  0.0000000    1.3882745 *  2.4012104 *
  59 C       2.3982268 *  2.4088072 *  1.3882745 *  0.0000000    2.7738151 *
  60 C       1.3887095 *  1.3844686 *  2.4012104 *  2.7738151 *  0.0000000  

  * ... LESS THAN  3.000


 TOTAL NUMBER OF BASIS SET SHELLS             =   60
 NUMBER OF CARTESIAN GAUSSIAN BASIS FUNCTIONS =  240
 NUMBER OF ELECTRONS                          =  240
 CHARGE OF MOLECULE                           =    0
 SPIN MULTIPLICITY                            =    1
 NUMBER OF OCCUPIED ORBITALS (ALPHA)          =  120
 NUMBER OF OCCUPIED ORBITALS (BETA )          =  120
 TOTAL NUMBER OF ATOMS                        =   60
 THE NUCLEAR REPULSION ENERGY IS     8588.0695976995

 THE PARAMETERS USED IN THIS CALCULATION ARE DESCRIBED IN:

  C: (PM3): J. J. P. STEWART, J. COMP. CHEM. 10, 209 (1989).                    

 THERE ARE   60 HEAVY AND    0 LIGHT ATOMS,
 YIELDING A TOTAL OF    177000 MOPAC 2E- INTEGRALS.

     $CONTRL OPTIONS
     ---------------
 SCFTYP=RHF          RUNTYP=OPTIMIZE     EXETYP=RUN     
 MPLEVL=       0     CITYP =NONE         CCTYP =NONE         VBTYP =NONE    
 DFTTYP=NONE         TDDFT =NONE    
 MULT  =       1     ICHARG=       0     NZVAR =       0     COORD =UNIQUE  
 PP    =NONE         RELWFN=NONE         LOCAL =NONE         NUMGRD=       F
 ISPHER=      -1     NOSYM =       0     MAXIT =     200     UNITS =ANGS    
 PLTORB=       F     MOLPLT=       F     AIMPAC=       F     FRIEND=        
 NPRINT=       7     IREST =       0     GEOM  =INPUT   
 NORMF =       0     NORMP =       0     ITOL  =      20     ICUT  =       9
 INTTYP=BEST         GRDTYP=BEST         QMTTOL= 1.0E-06

     $SYSTEM OPTIONS
     ---------------
  REPLICATED MEMORY=    10000000 WORDS (ON EVERY NODE).
 DISTRIBUTED MEMDDI=           0 MILLION WORDS IN AGGREGATE,
 MEMDDI DISTRIBUTED OVER   2 PROCESSORS IS           0 WORDS/PROCESSOR.
 TOTAL MEMORY REQUESTED ON EACH PROCESSOR=    10000000 WORDS.
 TIMLIM=      525600.00 MINUTES, OR     365.0 DAYS.
 PARALL= T  BALTYP=  DLB     KDIAG=    0  COREFL= F
 MXSEQ2=     300 MXSEQ3=     150  mem10=         0  mem22=         0

          ----------------
          PROPERTIES INPUT
          ----------------

     MOMENTS            FIELD           POTENTIAL          DENSITY
 IEMOM =       1   IEFLD =       0   IEPOT =       0   IEDEN =       0
 WHERE =COMASS     WHERE =NUCLEI     WHERE =NUCLEI     WHERE =NUCLEI  
 OUTPUT=BOTH       OUTPUT=BOTH       OUTPUT=BOTH       OUTPUT=BOTH    
 IEMINT=       0   IEFINT=       0                     IEDINT=       0
                                                       MORB  =       0
          EXTRAPOLATION IN EFFECT
          SOSCF IN EFFECT
 ORBITAL PRINTING OPTION: NPREO=     1   240     2     1

     -------------------------------
     INTEGRAL TRANSFORMATION OPTIONS
     -------------------------------
     NWORD  =            0
     CUTTRF = 1.0E-09     MPTRAN =       0
     DIRTRF =       T     AOINTS =DUP     

          ----------------------
          INTEGRAL INPUT OPTIONS
          ----------------------
 NOPK  =       1 NORDER=       0 SCHWRZ=       T

     ------------------------------------------
     THE POINT GROUP IS C1 , NAXIS= 0, ORDER= 1
     ------------------------------------------

     DIMENSIONS OF THE SYMMETRY SUBSPACES ARE
 A   =  240

 ..... DONE SETTING UP THE RUN .....
 CPU     0: STEP CPU TIME=     0.03 TOTAL CPU TIME=          0.0 (      0.0 MIN)
 TOTAL WALL CLOCK TIME=          0.0 SECONDS, CPU UTILIZATION IS    65.10%


          -----------------------------
          STATIONARY POINT LOCATION RUN
          -----------------------------

 OBTAINING INITIAL HESSIAN, HESS=GUESS   
 CARTESIAN COORDINATE OPTIMIZATION USING BADGER'S RULE FORCE CONSTANT GUESS

          PARAMETERS CONTROLLING GEOMETRY SEARCH ARE
          METHOD =QA                  UPHESS =BFGS    
          NNEG   =         0          NFRZ   =         0
          NSTEP  =       100          IFOLOW =         1
          HESS   =GUESS               RESTAR =         F
          IHREP  =         0          HSSEND =         F
          NPRT   =         0          NPUN   =         0
          OPTTOL = 1.000E-03          RMIN   = 1.500E-03
          RMAX   = 1.000E-01          RLIM   = 7.000E-02
          DXMAX  = 3.000E-01          PURIFY =         F
          MOVIE  =         F          TRUPD  =         T
          TRMAX  = 5.000E-01          TRMIN  = 5.000E-02
          ITBMAT =         5          STPT   =         F
          STSTEP = 1.000E-02          PROJCT=          T

 BEGINNING GEOMETRY SEARCH POINT NSERCH=   0 ...

 COORDINATES OF ALL ATOMS ARE (ANGS)
   ATOM   CHARGE       X              Y              Z
 ------------------------------------------------------------
 C           6.0   2.1665000000   0.5906000000   2.5874000000
 C           6.0   3.0378000000   0.1766000000   1.5918000000
 C           6.0   1.2786000000  -0.3098000000   3.1679000000
 C           6.0   3.0118000000  -1.1434000000   1.1654000000
 C           6.0   3.1034000000  -1.4335000000  -0.1930000000
 C           6.0   3.1503000000   1.2106000000   0.6682000000
 C           6.0   3.2428000000   0.9149000000  -0.6859000000
 C           6.0   3.2192000000  -0.4023000000  -1.1207000000
 C           6.0  -0.4393000000   1.3527000000   3.1271000000
 C           6.0   0.4363000000   2.2618000000   2.5542000000
 C           6.0  -0.0296000000   0.0633000000   3.4379000000
 C           6.0   1.7442000000   1.8790000000   2.2830000000
 C           6.0   2.3519000000   2.2676000000   1.0990000000
 C           6.0  -0.2633000000   3.0268000000   1.6326000000
 C           6.0   0.3374000000   3.4054000000   0.4373000000
 C           6.0   1.6516000000   3.0278000000   0.1707000000
 C           6.0  -2.0903000000  -0.8225000000   2.5955000000
 C           6.0  -2.5111000000   0.4664000000   2.2854000000
 C           6.0  -0.8449000000  -1.0252000000   3.1738000000
 C           6.0  -1.6874000000   1.5533000000   2.5512000000
 C           6.0  -1.5843000000   2.5858000000   1.6319000000
 C           6.0  -3.2314000000   0.4061000000   1.1007000000
 C           6.0  -3.1227000000   1.4410000000   0.1746000000
 C           6.0  -2.2947000000   2.5291000000   0.4399000000
 C           6.0  -0.4908000000  -2.9133000000   1.7365000000
 C           6.0  -1.7430000000  -2.7124000000   1.1637000000
 C           6.0  -0.0393000000  -2.0684000000   2.7453000000
 C           6.0  -2.5486000000  -1.6650000000   1.5942000000
 C           6.0  -3.2602000000  -0.9141000000   0.6701000000
 C           6.0  -1.6543000000  -3.0061000000  -0.1897000000
 C           6.0  -2.3542000000  -2.2439000000  -1.1170000000
 C           6.0  -3.1643000000  -1.1949000000  -0.6878000000
 C           6.0   2.1364000000  -2.0553000000   1.7358000000
 C           6.0   1.6895000000  -2.9009000000   0.7293000000
 C           6.0   1.2785000000  -1.6366000000   2.7435000000
 C           6.0   0.3678000000  -3.3327000000   0.7302000000
 C           6.0  -0.3440000000  -3.3904000000  -0.4594000000
 C           6.0   2.2889000000  -2.5250000000  -0.4640000000
 C           6.0   1.5790000000  -2.5718000000  -1.6580000000
 C           6.0   0.2560000000  -3.0054000000  -1.6531000000
 C           6.0  -2.1828000000  -0.5783000000  -2.5979000000
 C           6.0  -1.7480000000  -1.8694000000  -2.3083000000
 C           6.0  -0.4385000000  -2.2469000000  -2.5845000000
 C           6.0  -1.2815000000   0.3189000000  -3.1671000000
 C           6.0  -2.1526000000   2.0545000000  -1.7378000000
 C           6.0  -3.0485000000   1.1535000000  -1.1811000000
 C           6.0  -3.0656000000  -0.1629000000  -1.6107000000
 C           6.0  -1.2661000000   1.6407000000  -2.7271000000
 C           6.0   0.5039000000   2.9361000000  -1.7418000000
 C           6.0  -0.3788000000   3.3561000000  -0.7513000000
 C           6.0  -1.6943000000   2.9186000000  -0.7491000000
 C           6.0   0.0521000000   2.0730000000  -2.7355000000
 C           6.0   2.0976000000   0.8340000000  -2.6051000000
 C           6.0   2.5517000000   1.6923000000  -1.6107000000
 C           6.0   1.7589000000   2.7452000000  -1.1824000000
 C           6.0   0.8420000000   1.0206000000  -3.1786000000
 C           6.0   0.4461000000  -1.3495000000  -3.1661000000
 C           6.0   1.6983000000  -1.5485000000  -2.5908000000
 C           6.0   2.5184000000  -0.4623000000  -2.3171000000
 C           6.0   0.0218000000  -0.0645000000  -3.4585000000

          ********************
          1 ELECTRON INTEGRALS
          ********************

          **************************
          1 AND 2 ELECTRON INTEGRALS
          **************************

 MOPAC ONE- AND TWO-ELECTRON INTEGRALS REQUIRE    234840 WORDS.
 ...... END OF ONE- AND TWO-ELECTRON INTEGRALS......
[...]
   79  C 20  Y   -0.043156   0.062809  -0.085724   0.026782  -0.058169
   80  C 20  Z   -0.089311   0.063550  -0.174453   0.026942  -0.040893
   81  C 21  S   -0.004485  -0.039958  -0.001631  -0.029395   0.056722
   82  C 21  X    0.014979   0.056788   0.004223   0.024677  -0.113917
   83  C 21  Y   -0.037210  -0.103886  -0.015411  -0.098085   0.145298
   84  C 21  Z   -0.014077  -0.070198   0.040058  -0.071158   0.084593
   85  C 22  S   -0.013666  -0.050191   0.006463   0.004225   0.055400
   86  C 22  X    0.113652   0.171578  -0.023083  -0.029560  -0.183587
   87  C 22  Y   -0.033071  -0.010287   0.028711  -0.025727   0.035624
   88  C 22  Z   -0.049959  -0.040676  -0.025310   0.015224   0.080765
   89  C 23  S    0.013660   0.017301  -0.062742   0.025155  -0.023546
   90  C 23  X   -0.118859  -0.054941   0.198097  -0.091011   0.082162
   91  C 23  Y    0.044379   0.018744  -0.105070   0.048978   0.007155
   92  C 23  Z    0.008415   0.037347  -0.011245  -0.012094  -0.013923
   93  C 24  S    0.004487  -0.004232   0.046433  -0.021182  -0.055147
   94  C 24  X   -0.019726   0.014264  -0.135740   0.063162   0.105944
   95  C 24  Y    0.037944  -0.008893   0.108764  -0.069780  -0.151588
   96  C 24  Z    0.003295   0.021725   0.019718   0.023614  -0.044974
   97  C 25  S    0.016441   0.020122   0.026869  -0.022878  -0.003945
   98  C 25  X   -0.030137  -0.006147  -0.041590   0.011098  -0.018476
   99  C 25  Y   -0.121448  -0.084431  -0.104450   0.057136   0.024887
  100  C 25  Z    0.086990   0.016652   0.030978  -0.064262  -0.003384
  101  C 26  S   -0.000831  -0.022605  -0.062591  -0.005100  -0.034504
  102  C 26  X   -0.009136   0.039248   0.114626   0.026998   0.066825
  103  C 26  Y    0.004685   0.089017   0.168653  -0.016383   0.099883
  104  C 26  Z   -0.024887  -0.018608  -0.079905  -0.030420  -0.037483
  105  C 27  S   -0.016329   0.024856   0.028992   0.051349   0.004112
  106  C 27  X   -0.014389   0.026038  -0.008643  -0.001602  -0.018305
  107  C 27  Y    0.104202  -0.046981  -0.041765  -0.113052  -0.004712
  108  C 27  Z   -0.111440   0.087734   0.116646   0.134688   0.005763
  109  C 28  S    0.000815  -0.006409   0.029337   0.061045   0.015102
  110  C 28  X   -0.020511   0.046932  -0.059638  -0.172739  -0.026455
  111  C 28  Y   -0.005200  -0.003746  -0.078499  -0.097382  -0.042370
  112  C 28  Z   -0.021994  -0.015597   0.040487   0.093869   0.014369
  113  C 29  S   -0.020853   0.044768   0.029224  -0.051733   0.002907
  114  C 29  X    0.180070  -0.157381  -0.104381   0.170676   0.003267
  115  C 29  Y    0.065105  -0.021922  -0.028591   0.067675  -0.018352
  116  C 29  Z   -0.029092   0.036577  -0.006989  -0.053299  -0.033876
  117  C 30  S   -0.016875   0.033980   0.010815  -0.057576   0.031418
  118  C 30  X    0.087157  -0.049184  -0.030433   0.116549  -0.031859
  119  C 30  Y    0.130151  -0.107408  -0.034962   0.164471  -0.130482
  120  C 30  Z    0.007858  -0.005146   0.031076   0.029088   0.012506
  121  C 31  S    0.016834   0.003165   0.016930   0.065253   0.033252
  122  C 31  X   -0.091042  -0.008057  -0.067793  -0.142767  -0.102536
  123  C 31  Y   -0.114891   0.003854  -0.024573  -0.166797  -0.064565
  124  C 31  Z   -0.058353  -0.024434  -0.007813  -0.059884  -0.071715
  125  C 32  S    0.020886  -0.002275  -0.056613   0.005156  -0.044885
  126  C 32  X   -0.184367   0.002733   0.179153  -0.023957   0.153996
  127  C 32  Y   -0.052453   0.018067   0.070579   0.023214   0.057682
  128  C 32  Z   -0.029575  -0.033842   0.026526   0.028732   0.049417
  129  C 33  S   -0.011198   0.011512   0.004117  -0.002352  -0.018859
  130  C 33  X   -0.070125  -0.011486  -0.004437   0.006092  -0.048569
  131  C 33  Y    0.049262  -0.012526  -0.004318   0.033951   0.048738
  132  C 33  Z   -0.060840   0.052551   0.014863   0.010238  -0.038672
  133  C 34  S   -0.010939   0.038167  -0.002576   0.055685   0.011258
  134  C 34  X   -0.044564   0.054258  -0.034078   0.083951   0.050919
  135  C 34  Y    0.089521  -0.127684   0.009088  -0.168063  -0.027346
  136  C 34  Z   -0.017049   0.021596   0.006516   0.038233  -0.008201
  137  C 35  S    0.011153  -0.067261  -0.016228  -0.014947   0.018658
  138  C 35  X    0.028026  -0.088098  -0.016269   0.002180   0.031339
  139  C 35  Y   -0.071897   0.105786   0.033308   0.048351  -0.032455
  140  C 35  Z    0.074201  -0.206284  -0.052258  -0.041754   0.030755
  141  C 36  S    0.010863  -0.045563  -0.025182  -0.031282   0.040661
  142  C 36  X    0.018063  -0.035847   0.003947  -0.038896  -0.000321
  143  C 36  Y   -0.099942   0.142553   0.101526   0.104826  -0.150972
  144  C 36  Z    0.009647  -0.046394  -0.017709  -0.023964   0.010596
  145  C 37  S   -0.009607  -0.022000   0.021367  -0.010024  -0.066976
  146  C 37  X   -0.005937   0.027840   0.001625  -0.026229   0.022460
  147  C 37  Y    0.089405   0.066445  -0.068627   0.021644   0.243083
  148  C 37  Z    0.011004   0.035211  -0.008606   0.041728   0.021132
  149  C 38  S    0.004469  -0.004342   0.046481  -0.021125  -0.055150
  150  C 38  X    0.019752  -0.014484   0.136089  -0.063163  -0.106055
  151  C 38  Y   -0.038047   0.009081  -0.109052   0.069812   0.151844
  152  C 38  Z   -0.003318  -0.021664  -0.019680  -0.023581   0.045040
  153  C 39  S   -0.004519  -0.039856  -0.001568  -0.029309   0.056838
  154  C 39  X   -0.014995  -0.056601  -0.004136  -0.024528   0.113910
  155  C 39  Y    0.037199   0.103546   0.015140   0.097663  -0.145300
  156  C 39  Z    0.014113   0.069997  -0.040188   0.070838  -0.084577
  157  C 40  S    0.009611   0.026263  -0.004087   0.068672   0.015598
  158  C 40  X    0.008322   0.030492   0.002547   0.016194  -0.025320
  159  C 40  Y   -0.081275  -0.090407   0.021001  -0.212086  -0.057015
  160  C 40  Z   -0.036418  -0.028150   0.003302  -0.132114   0.011542
  161  C 41  S   -0.023196   0.018732  -0.003859   0.021615   0.005893
  162  C 41  X    0.132201  -0.080905   0.016636  -0.050412  -0.000838
  163  C 41  Y    0.024419  -0.037123   0.018548  -0.011161  -0.032827
  164  C 41  Z    0.169433  -0.032074   0.013494  -0.068022  -0.020860
  165  C 42  S   -0.010459  -0.045704   0.016035  -0.006892  -0.056460
  166  C 42  X    0.045893   0.081092  -0.009386   0.053630   0.098578
  167  C 42  Y    0.073498   0.093209  -0.027423   0.017355   0.113784
  168  C 42  Z    0.049582   0.115922  -0.036800  -0.001586   0.130854
  169  C 43  S    0.010413   0.033410  -0.015582  -0.050976   0.024278
  170  C 43  X   -0.017199  -0.042543   0.007397   0.006010  -0.042496
  171  C 43  Y   -0.052106  -0.061951   0.041541   0.141605  -0.049387
  172  C 43  Z   -0.080664  -0.080148   0.050537   0.128623  -0.058425
  173  C 44  S    0.023295   0.054510  -0.007755  -0.027009   0.012030
  174  C 44  X   -0.087465  -0.060298  -0.003092   0.040262   0.003746
  175  C 44  Y    0.007091   0.046629   0.001742   0.006056  -0.012110
  176  C 44  Z   -0.197706  -0.193825   0.042048   0.075426  -0.049740
  177  C 45  S   -0.011151   0.011451   0.004067  -0.002236  -0.018767
  178  C 45  X    0.070101   0.011754   0.004576  -0.006215   0.048501
  179  C 45  Y   -0.049267   0.012411   0.004234  -0.033926  -0.048652
  180  C 45  Z    0.060805  -0.052643  -0.014932  -0.010380   0.038579
  181  C 46  S    0.004010   0.049938   0.026154  -0.029922   0.000814
  182  C 46  X   -0.023683  -0.156027  -0.099261   0.089906  -0.001649
  183  C 46  Y    0.016068   0.025852   0.046461  -0.029415   0.015865
  184  C 46  Z   -0.031674  -0.069888  -0.007506   0.030126   0.012821
  185  C 47  S   -0.004048  -0.064912   0.009507   0.006048   0.032113
  186  C 47  X    0.046008   0.203562  -0.047111  -0.025589  -0.103549
  187  C 47  Y    0.007719  -0.006623  -0.034605   0.011443  -0.014200
  188  C 47  Z   -0.008467   0.107046  -0.009301  -0.008073  -0.040802
  189  C 48  S    0.011184  -0.067578  -0.016397  -0.015089   0.018619
  190  C 48  X   -0.028023   0.088204   0.016357  -0.002021  -0.031216
  191  C 48  Y    0.071841  -0.105950  -0.033496  -0.048506   0.032350
  192  C 48  Z   -0.074143   0.206593   0.052576   0.041971  -0.030581
  193  C 49  S    0.016377   0.020074   0.026818  -0.022758  -0.003932
  194  C 49  X    0.030142   0.006091   0.041602  -0.011068   0.018468
  195  C 49  Y    0.121346   0.084265   0.104297  -0.056853  -0.024792
  196  C 49  Z   -0.086922  -0.016452  -0.030773   0.064157   0.003319
  197  C 50  S    0.010903  -0.045799  -0.025301  -0.031452   0.040627
  198  C 50  X   -0.018046   0.035917  -0.003796   0.038926   0.000255
  199  C 50  Y    0.099963  -0.143031  -0.101740  -0.105227   0.150867
  200  C 50  Z   -0.009682   0.046398   0.017754   0.024065  -0.010651
  201  C 51  S   -0.010940   0.038290  -0.002392   0.055757   0.011204
  202  C 51  X    0.044540  -0.054386   0.033837  -0.084063  -0.050844
  203  C 51  Y   -0.089456   0.128063  -0.008594   0.168357   0.027235
  204  C 51  Z    0.017093  -0.021793  -0.006650  -0.038332   0.008260
  205  C 52  S   -0.016188   0.025004   0.029240   0.051353   0.004088
  206  C 52  X    0.014453  -0.026133   0.008708   0.001575   0.018290
  207  C 52  Y   -0.104277   0.047343   0.042132   0.113151   0.004662
  208  C 52  Z    0.111382  -0.088172  -0.117257  -0.134897  -0.005713
  209  C 53  S    0.021134   0.010961   0.018329  -0.021401   0.029842
  210  C 53  X    0.110459   0.024582  -0.003228  -0.073059   0.075784
  211  C 53  Y    0.059051   0.001481   0.029176  -0.037972   0.005236
  212  C 53  Z   -0.153670  -0.030619  -0.066143   0.048872  -0.091662
  213  C 54  S    0.000874  -0.006272   0.029610   0.061162   0.015157
  214  C 54  X    0.020590  -0.046522   0.060055   0.172715   0.026520
  215  C 54  Y    0.005224   0.003898   0.078764   0.097501   0.042333
  216  C 54  Z    0.021838   0.015407  -0.040767  -0.093917  -0.014433
  217  C 55  S   -0.000810  -0.022557  -0.062713  -0.005249  -0.034446
  218  C 55  X    0.009183  -0.039310  -0.114948  -0.027202  -0.066801
  219  C 55  Y   -0.004559  -0.088978  -0.169000   0.016131  -0.099863
  220  C 55  Z    0.024878   0.018652   0.080133   0.030582   0.037518
  221  C 56  S   -0.021555  -0.000309  -0.071710  -0.013532  -0.011589
  222  C 56  X   -0.060151  -0.006855  -0.057157   0.009498  -0.031136
  223  C 56  Y   -0.045398  -0.015919  -0.071641  -0.038620  -0.025086
  224  C 56  Z    0.183574  -0.005889   0.240495   0.057544   0.013890
  225  C 57  S   -0.003250   0.004214   0.013740   0.013491   0.032330
  226  C 57  X    0.015791  -0.000382   0.037545  -0.005156   0.023948
  227  C 57  Y    0.016273   0.028902  -0.046434  -0.042096  -0.029749
  228  C 57  Z    0.027717  -0.015158  -0.039428  -0.046813  -0.115339
  229  C 58  S   -0.012317   0.025329  -0.066447   0.011000  -0.015721
  230  C 58  X   -0.058444   0.053217  -0.125726   0.022599  -0.009448
  231  C 58  Y    0.043140  -0.062858   0.085900  -0.026655   0.058277
  232  C 58  Z    0.089338  -0.063662   0.174788  -0.026731   0.040832
  233  C 59  S    0.012528  -0.006638   0.051085  -0.001583  -0.048794
  234  C 59  X    0.091113   0.014495   0.118561   0.002743  -0.143079
  235  C 59  Y   -0.032488   0.008990  -0.052533   0.008904   0.011451
  236  C 59  Z   -0.065503   0.028647  -0.126186   0.002714   0.103844
  237  C 60  S    0.003262  -0.039133   0.041490   0.008880  -0.042153
  238  C 60  X    0.028733   0.017761   0.015692  -0.015831   0.004088
  239  C 60  Y    0.007000  -0.003976   0.025838   0.012641   0.023320
  240  C 60  Z   -0.029642   0.148935  -0.155998  -0.043177   0.138760

     ----------------------------------------------------------------
     PROPERTY VALUES FOR THE RHF   SELF-CONSISTENT FIELD WAVEFUNCTION
     ----------------------------------------------------------------

                    -------------
                    MOPAC CHARGES
                    -------------
         ATOM NO.   TYPE          CHARGE        ATOM  ELECTRON DENSITY
           1         C              0.0000          4.0000
           2         C             -0.0000          4.0000
           3         C             -0.0001          4.0001
           4         C              0.0001          3.9999
           5         C             -0.0001          4.0001
           6         C             -0.0000          4.0000
           7         C              0.0000          4.0000
           8         C              0.0001          3.9999
           9         C             -0.0001          4.0001
          10         C              0.0001          3.9999
          11         C              0.0001          3.9999
          12         C             -0.0001          4.0001
          13         C              0.0001          3.9999
          14         C             -0.0001          4.0001
          15         C              0.0000          4.0000
          16         C             -0.0001          4.0001
          17         C              0.0001          3.9999
          18         C             -0.0000          4.0000
          19         C             -0.0001          4.0001
          20         C              0.0001          3.9999
          21         C              0.0000          4.0000
          22         C             -0.0001          4.0001
          23         C             -0.0000          4.0000
          24         C             -0.0000          4.0000
          25         C             -0.0000          4.0000
          26         C              0.0001          3.9999
          27         C              0.0000          4.0000
          28         C             -0.0000          4.0000
          29         C              0.0001          3.9999
          30         C             -0.0001          4.0001
          31         C              0.0000          4.0000
          32         C             -0.0000          4.0000
          33         C              0.0000          4.0000
          34         C             -0.0000          4.0000
          35         C             -0.0000          4.0000
          36         C              0.0001          3.9999
          37         C             -0.0000          4.0000
          38         C              0.0001          3.9999
          39         C             -0.0001          4.0001
          40         C              0.0000          4.0000
          41         C              0.0000          4.0000
          42         C             -0.0001          4.0001
          43         C              0.0001          3.9999
          44         C             -0.0000          4.0000
          45         C              0.0000          4.0000
          46         C              0.0000          4.0000
          47         C              0.0000          4.0000
          48         C             -0.0000          4.0000
          49         C             -0.0002          4.0002
          50         C              0.0001          3.9999
          51         C             -0.0000          4.0000
          52         C              0.0001          3.9999
          53         C              0.0002          3.9998
          54         C             -0.0001          4.0001
          55         C              0.0002          3.9998
          56         C             -0.0002          4.0002
          57         C             -0.0002          4.0002
          58         C              0.0002          3.9998
          59         C             -0.0002          4.0002
          60         C              0.0002          3.9998

          ---------------------
          ELECTROSTATIC MOMENTS
          ---------------------

 POINT   1           X           Y           Z (ANGS)      CHARGE
                 0.000000    0.000000    0.000000        0.00 (A.U.)
         DX          DY          DZ         /D/  (DEBYE)
     0.000008   -0.000179    0.000081    0.000197
 ...... END OF PROPERTY EVALUATION ......
 CPU     0: STEP CPU TIME=     0.12 TOTAL CPU TIME=          2.6 (      0.0 MIN)
 TOTAL WALL CLOCK TIME=          4.1 SECONDS, CPU UTILIZATION IS    63.04%
  $VIB   
          IVIB=   0 IATOM=   0 ICOORD=   0 E=     -260.3008330840
 -1.476774593E-05-4.132920463E-05-3.775096396E-05 2.162336149E-04-1.448747031E-05
  1.676631099E-04 7.233447843E-05-5.093430944E-05 1.716282737E-04-1.229302074E-05
 -1.141539415E-05 8.547914769E-05 2.393572989E-04-1.141094016E-04-7.797848055E-05
  1.238324413E-04 1.347282853E-04 8.465670514E-06-1.092403091E-05 8.925182101E-05
 -2.206912820E-06-4.966619117E-05-6.087608022E-05-4.141266951E-05-7.249113027E-05
  8.177926614E-05 1.574430816E-04 6.148230380E-05 8.973192664E-06 3.320598574E-05
 -8.784766753E-06-3.556414821E-05 9.589097211E-05 9.546946428E-05 1.275194319E-04
  1.987336528E-04 6.397711431E-05-3.129862274E-05-6.538232764E-05-5.617434514E-05
  2.035312476E-04 5.610444827E-05-6.012909080E-05-3.539402577E-05-2.813463262E-05
  1.271020046E-04 2.346763691E-04-3.935629125E-05-5.942190654E-05-1.321854852E-06
  6.204327511E-05-3.564161050E-05 1.464826759E-05 1.334339983E-04 1.156118979E-05
 -1.748814204E-05 1.413511248E-04-8.935211981E-05-3.045844602E-05 1.427987349E-04
 -8.292541258E-06 1.310383908E-04 5.105528774E-06-1.031625708E-04-1.408835197E-05
 -5.426421023E-05-7.022897539E-05-4.073297639E-05-2.357581210E-05-4.842505761E-05
  1.347781846E-04-1.061821664E-05-5.795326875E-05-2.085087619E-04 1.163911444E-04
 -4.761266981E-07-3.192254456E-05 7.035801449E-05-1.678508801E-05-2.281096415E-05
  4.204885560E-05-1.559746614E-04-9.186184077E-05 1.267320307E-04-1.182442934E-04
  2.506319832E-05 3.577778527E-05-4.719119100E-05-1.425411528E-04-1.175334452E-04
  7.680380039E-06-4.665312459E-05-1.479301167E-05-1.595164879E-04 2.866347198E-05
 -7.320249520E-05 1.123000906E-04-1.033519129E-04 7.336333325E-05 1.426635198E-04
 -2.044440738E-04 4.214458544E-05 2.937385859E-05 4.531127009E-05 7.209735471E-05
 -6.794794219E-06-2.439526925E-05 2.351017052E-05-1.320455491E-05-1.588171447E-04
 -6.330335884E-05-2.282411278E-05 7.230851488E-05-4.977988802E-05 1.751322516E-04
 -1.808460850E-04-1.490333620E-04-1.169106814E-04-3.951919787E-05-1.214274319E-05
  5.797393305E-05 4.435978567E-05-3.216808282E-05-1.398156999E-04-1.619583502E-04
 -1.166980896E-04 3.059390501E-05-4.575674959E-05 4.785293922E-06-8.394479301E-05
 -5.974337535E-05-1.443087365E-04 5.945563587E-05-1.143813601E-05-2.383902166E-06
 -2.491334651E-04 1.394774110E-04-5.015907924E-06-1.203890661E-04-1.289267159E-04
 -5.106929931E-05-9.924488326E-05 1.855217812E-04-1.700715820E-04-3.189075322E-05
  1.970421115E-04-1.420244319E-04 1.083449435E-05 1.429927247E-04 2.182969823E-05
 -9.613252246E-05 1.494535619E-04-2.569739667E-05 3.841032234E-06-4.193093594E-05
  1.348989563E-04-1.388650943E-04-6.784590922E-05 1.946648587E-04 3.632323546E-04
  1.221347945E-04-1.338512888E-04-9.236483748E-06-3.117582736E-05 6.701787032E-05
  1.059796067E-04 1.275459738E-04-4.679938231E-04 7.395702379E-05-1.660270172E-04
 -3.065777553E-04-6.762703370E-05 3.338048990E-05 1.540920646E-04 3.136552460E-04
 -3.863090508E-05-2.411579971E-04-4.611308358E-05 3.442487627E-05 6.042809412E-05
  7.833042654E-06-1.789783394E-04 8.096449439E-05
 ......END OF GEOMETRY SEARCH......
 CPU     0: STEP CPU TIME=     0.06 TOTAL CPU TIME=          2.7 (      0.0 MIN)
 TOTAL WALL CLOCK TIME=          4.2 SECONDS, CPU UTILIZATION IS    63.59%
                643560  WORDS OF DYNAMIC MEMORY USED
 EXECUTION OF GAMESS TERMINATED NORMALLY 21:04:22 22-MAY-2023    
 DDI: 263640 bytes (0.3 MB / 0 MWords) used by master data server.

 ----------------------------------------
 CPU timing information for all processes
 ========================================
 0: 1.984375 + 0.812500 = 2.796875
 1: 2.171875 + 0.359375 = 2.531250
 2: 1.296875 + 1.234375 = 2.531250
 3: 0.718750 + 0.968750 = 1.687500
 ----------------------------------------
           Disk usage (in bytes)       
 ========================================
 ----------------------------------------
            Local date and time          
 ========================================
22.05.2023 - 21:04:22,62                          
