          *******************************************************
          *                                                     *
          *          GAMESS VERSION = 30 SEP 2022 (R2)          *
          *                                                     *
          *              doi.org/10.1063/5.0005188              *
          *                                                     *
          *************** 64 BIT WINDOWS VERSION ****************

  GAMESS HAS BEEN MADE POSSIBLE WITH IMPORTANT CONTRIBUTIONS FROM
  THE FOLLOWING INDIVIDUALS (IN ALPHABETICAL ORDER):

     IVANA ADAMOVIC, CHRISTINE AIKENS, TOMOKO AKAMA,
     MELISA ALKAN, YURI ALEXEEV, YURIKO AOKI, POOJA ARORA,
     TOSHIO ASADA, ANDREY ASADCHEV, KIM K. BALDRIDGE,
     PRADIPTA BANDYOPADHYAY, TAYLOR A. BARNES, MARIA BARYSZ,
     ROB BELL, JONATHAN BENTZ, COLLEEN BERTONI,
     JERRY A. BOATZ, BRETT BODE, KURT BRORSEN, KURT R. BRORSEN,
     LAIMUTIS BYTAUTAS, CALEB CARLIN, LAURA CARRINGTON,
     GALINA CHABAN, BENOIT CHAMPAGNE, WEI CHEN, MAHITO CHIBA,
     DAN CHIPMAN, CHEOL HO CHOI, TANNER CULPITT,
     DIPAYAN DATTA, PAUL DAY, ALBERT DEFUSCO,
     NUWAN DESILVA, J. EMILIANO DEUSTUA,
     TIM DUDLEY, MICHEL DUPUIS, STEVEN T. ELBERT,
     DMITRI FEDOROV, KATHERINE FERRERAS, MICHAEL FILATOV,
     ALEX FINDLATER,GRAHAM FLETCHER, MARK FREITAG,
     CHRISTIAN FRIEDL, DAVID GARMER, 
     IGOR S. GERASIMOV, KURT GLAESEMANN,
     MARK S. GORDON, JEFFREY GOUR, FENG LONG GU,
     EMILIE B. GUIDEZ, ANASTASIA GUNINA, SHARON HAMMES-SCHIFFER,
     MASATAKE HARUTA, KIMIHIKO HIRAO, YASUHIRO IKABATA,
     TZVETELIN IORDANOV, STEPHAN IRLE, KAZUYA ISHIMURA,
     JOE IVANIC, FRANK JENSEN, JAN H. JENSEN, VISVALDAS KAIRYS,
     MUNEAKI KAMIYA, MICHIO KATOUDA, NAOAKI KAWAKAMI, DAN KEMP,
     BERNARD KIRTMAN, KAZUO KITAURA, MARIUSZ KLOBUKOWSKI,
     MASATO KOBAYASHI, KONSTANTIN KOMAROV, PRAKASHAN KORAMBATH,
     JACEK KORCHOWIEC, SHIRO KOSEKI, KAROL KOWALSKI,
     JIMMY KROMANN, STANISLAW KUCHARSKI, HENRY KURTZ,
     SAROM SOK LEANG, SEUNGHOON LEE, HUI LI, SHUHUA LI, WEI LI,
     JESSE LUTZ, ALEKSANDR O. LYKHIN, MARCIN MAKOWSKI,
     JOANI MATO, NIKITA MATSUNAGA, BENEDETTA MENNUCCI,
     GRANT MERRILL, NORIYUKI MINEZAWA, VLADIMIR MIRONOV,
     EISAKU MIYOSHI, JOHN A. MONTGOMERY JR., HIROTOSHI MORI,
     JONATHAN MULLIN, MONIKA MUSIAL, SHIGERU NAGASE,
     TAKESHI NAGATA, HIROMI NAKAI, TAKAHITO NAKAJIMA,
     YUYA NAKAJIMA, HARUYUKI NAKANO, HIROYA NAKATA, SEAN NEDD,
     HEATHER NETZLOFF, KIET A. NGUYEN, YOSHIO NISHIMOTO,
     BOSILJKA NJEGIC, RYAN OLSON, MIKE PAK, ROBERTO PEVERATI,
     BUU PHAM, PIOTR PIECUCH, ANNA POMOGAEVA, DAVID POOLE,
     SPENCER PRUITT, OLIVIER QUINET, LUKE ROSKOP,
     KLAUS RUEDENBERG, ANDREW SAND, TOSAPORN SATTASATHUCHANA,
     NOZOMI SAWADA, MICHAEL W. SCHMIDT, PATRICK E. SCHNEIDER,
     JUNJI SEINO, PRACHI SHARMA, JUN SHEN, JIM SHOEMAKER,
     YINAN SHU, DEJUN SI, JONATHAN SKONE, LYUDMILA SLIPCHENKO,
     TONY SMITH, JIE SONG, MARK SPACKMAN, CASPER STEINMANN,
     WALT STEVENS, PEIFENG SU, SHUJUN SU, CHET SWALINA,
     CHINAMI TAKASHIMA, TETSUYA TAKETSUGU, ZHEN TAO,
     NANDUN THELLAMUREGE, SEIKEN TOKURA, JACOPO TOMASI,
     TSUGUKI TOUMA, TAKAO TSUNEDA, HIROAKI UMEDA,
     JORGE LUIS GALVEZ VALLEJO, YALI WANG, SIMON WEBB,
     AARON WEST, THERESA L. WINDUS, MARTA WLOCH,
     PENG XU, KIYOSHI YAGI, SUSUMU YANAGISAWA, YANG YANG,
     SOOHAENG YOO, TAKESHI YOSHIKAWA, FEDERICO ZAHARIEV,
     TOBY ZENG

  WHO ARE SUPPORTED BY THEIR INSTITUTION/UNIVERSITY/COMPANY/GROUP
  (IN ALPHABETICAL ORDER):

     EP ANALYTICS,
     FACULTES UNIVERSITAIRES NOTRE-DAME DE LA PAIX,
     INSTITUTE FOR MOLECULAR SCIENCE, IOWA STATE UNIVERSITY,
     JACKSON STATE UNIVERSITY, JOHANNES KEPLER UNIVERSITY LINZ,
     KYUNGPOOK NATIONAL UNIVERSITY
     KYUSHU UNIVERSITY, MICHIGAN STATE UNIVERSITY,
     MIE UNIVERSITY, THE MOLECULAR SCIENCES SOFTWARE INSTITUTE,
     MOSCOW STATE UNIVERSITY,
     N. COPERNICUS UNIVERSITY, NAGOYA UNIVERSITY,
     NANJING UNIVERSITY, NAT. INST. OF ADVANCED INDUSTRIAL
     SCIENCE AND TECHNOLOGY, NATIONAL INST. OF STANDARDS AND
     TECHNOLOGY, NESMEYANOV INSTITUTE OF ORGANOELEMENT COMPOUNDS
     OF RUSSIAN ACADEMY OF SCIENCES, OSAKA PREFECTURE UNIVERSITY,
     PENNSYLVANIA STATE UNIVERSITY, TOKYO INSTITUTE OF TECHNOLOGY,
     UNIVERSITY OF AARHUS, UNIVERSITY OF ALBERTA,
     UNIVERSITY OF CALIFORNIA AT SANTA BARBARA,
     UNIVERSITY OF COPENHAGEN, UNIVERSITY OF IOWA,
     UNIVERSITY OF MEMPHIS, UNIVERSITY OF MINNESOTA,
     UNIVERSITY OF NEBRASKA, UNIVERSITY OF NEW ENGLAND,
     UNIVERSITY OF NOTRE DAME, UNIVERSITY OF PISA,
     UNIVERSITY OF SILESIA, UNIVERSITY OF TOKYO,
     UNIVERSITY OF ZURICH, WASEDA UNIVERSITY,
     YALE UNIVERSITY

  GAMESS SOFTWARE MANAGEMENT TEAM FOR THIS RELEASE:
     MARK S. GORDON (TEAM LEAD),
     BRETT BODE (SENIOR ADVISOR),
     GIUSEPPE BARCA,
     COLLEEN BERTONI,
     KRISTOPHER KEIPERT (ADVISOR),
     SAROM S. LEANG (DEVELOPMENT LEAD),
     BUU PHAM,
     JACKSON HAYES (WEBSITE ADMINISTRATOR),
     PENG XU


 PARALLEL VERSION RUNNING ON        2 PROCESSORS IN        2 NODES.

 EXECUTION OF GAMESS BEGUN 21:11:18 27-MAY-2023    

            ECHO OF THE FIRST FEW INPUT CARDS -
 INPUT CARD>! (Energy/Geometry) PM3                                                         
 INPUT CARD> $CONTRL                                                                        
 INPUT CARD>COORD=UNIQUE                                                                    
 INPUT CARD>ICHARG=0                                                                        
 INPUT CARD>MAXIT=200                                                                       
 INPUT CARD>MULT=1                                                                          
 INPUT CARD>RUNTYP=OPTIMIZE                                                                 
 INPUT CARD>SCFTYP=RHF                                                                      
 INPUT CARD>UNITS=ANGS                                                                      
 INPUT CARD>! DFTTYP=PBE                                                                    
 INPUT CARD> $END                                                                           
 INPUT CARD> $DFT                                                                           
 INPUT CARD>METHOD=GRID                                                                     
 INPUT CARD> $END                                                                           
 INPUT CARD> $BASIS                                                                         
 INPUT CARD>! EXTFIL=.T.                                                                    
 INPUT CARD>! GBASIS=GEGSSBAS                                                               
 INPUT CARD>! NGAUSS=6                                                                      
 INPUT CARD>GBASIS=PM3                                                                      
 INPUT CARD>! NDFUNC=1                                                                      
 INPUT CARD>! NPFUNC=1                                                                      
 INPUT CARD> $END                                                                           
 INPUT CARD> $SCF                                                                           
 INPUT CARD>DAMP=.F.                                                                        
 INPUT CARD>DEM=.F.                                                                         
 INPUT CARD>DIIS=.F.                                                                        
 INPUT CARD>DIRSCF=.T.                                                                      
 INPUT CARD>EXTRAP=.T.                                                                      
 INPUT CARD>RSTRCT=.F.                                                                      
 INPUT CARD>SHIFT=.F.                                                                       
 INPUT CARD>SOSCF=.T.                                                                       
 INPUT CARD> $END                                                                           
 INPUT CARD> $STATPT                                                                        
 INPUT CARD>METHOD=QA                                                                       
 INPUT CARD>NSTEP=100                                                                       
 INPUT CARD>OPTTOL=0.001                                                                    
 INPUT CARD> $END                                                                           
 INPUT CARD> $GUESS                                                                         
 INPUT CARD>GUESS=HUCKEL                                                                    
 INPUT CARD> $END                                                                           
 INPUT CARD> $SYSTEM                                                                        
 INPUT CARD>MWORDS=10                                                                       
 INPUT CARD> $END                                                                           
 INPUT CARD> $DATA                                                                          
 INPUT CARD>C70 FULLERENE                                                                   
 INPUT CARD>C1                                                                              
 INPUT CARD>C	6.0	3.1004	-2.2295	0.6489                                                     
 INPUT CARD>C	6.0	2.3569	-2.2755	1.8062                                                     
 INPUT CARD>C	6.0	3.8685	-1.1257	0.3176                                                     
 INPUT CARD>C	6.0	2.3606	-1.1905	2.6493                                                     
     10000000 WORDS OF MEMORY AVAILABLE

     BASIS OPTIONS
     -------------
     GBASIS=PM3          IGAUSS=       0      POLAR=NONE    
     NDFUNC=       0     NFFUNC=       0     DIFFSP=       F
     NPFUNC=       0      DIFFS=       F     BASNAM=        


     RUN TITLE
     ---------
 C70 FULLERENE                                                                   

 THE POINT GROUP OF THE MOLECULE IS C1      
 THE ORDER OF THE PRINCIPAL AXIS IS     0

 ATOM      ATOMIC                      COORDINATES (BOHR)
           CHARGE         X                   Y                   Z
 C           6.0     5.8589064523       -4.2131440896        1.2262431934
 C           6.0     4.4538951805       -4.3000714851        3.4132230790
 C           6.0     7.3104049835       -2.1272645444        0.6001769737
 C           6.0     4.4608871666       -2.2497187884        5.0064510593
 C           6.0     2.2466952268       -1.5231191461        6.1752465827
 C           6.0     0.0102045203       -2.9281304180        5.9532037791
 C           6.0    -2.2253413231       -1.5189617489        6.1780811717
 C           6.0     5.8657094659       -2.4710057015       -3.6305415676
 C           6.0     4.4572966872       -4.5748376437       -3.0326322651
 C           6.0     7.3196646408       -1.2268101112       -1.8490968790
 C           6.0     4.4521944271       -5.4477020774       -0.5895945082
 C           6.0     2.2387583777       -6.3564713049        0.4527783467
 C           6.0    -0.0060471232       -6.5819156152       -0.9295562134
 C           6.0    -2.2534982404       -6.3540146611        0.4506996481
 C           6.0    -0.0024566438       -5.0765598934        4.2945912797
 C           6.0     2.2408370762       -5.6228796765        3.0090106902
 C           6.0    -2.2489628980       -5.6156987177        3.0093886354
 C           6.0     5.9040709034        2.7081663130       -3.4772847900
 C           6.0     4.4831859333        1.4732303800       -5.2844297521
 C           6.0     7.3400736815        1.3793109984       -1.7491303742
 C           6.0     4.4561628516       -1.1179618943       -5.3571842026
 C           6.0     2.2412150214       -2.3965504976       -5.8759139862
 C           6.0     0.0113383559       -1.1249538805       -6.5231451370
 C           6.0    -2.2268531039       -2.3927710457       -5.8776147396
 C           6.0    -0.0043463698       -5.6618080318       -3.4890010911
 C           6.0     2.2400811858       -4.6080968211       -4.4072189486
 C           6.0    -2.2485849528       -4.6046953143       -4.4040064144
 C           6.0     5.8764809040        4.1169570369        1.5025211328
 C           6.0     4.4697688788        5.4665993373       -0.2354598581
 C           6.0     7.3357273117        2.0739742715        0.7651500524
 C           6.0     4.4754380567        4.7564403111       -2.7334886412
 C           6.0     2.2584115279        4.8807842811       -4.1008943660
 C           6.0     0.0119052737        5.8721345342       -3.1152132908
 C           6.0    -2.2378135147        4.8834298975       -4.0984377222
 C           6.0     0.0100155477        1.5869918845       -6.4445325359
 C           6.0     2.2597343361        2.7814876813       -5.7290822770
 C           6.0    -2.2361127613        2.7833774073       -5.7290822770
 C           6.0     5.8972678899       -0.1553354762        4.4108094279
 C           6.0     4.4843197689        1.9135365352        5.1540386589
 C           6.0     7.3345934761       -0.0840928065        2.2359237887
 C           6.0     4.4678791528        4.0553519697        3.6900679362
 C           6.0     2.2551989937        5.3961125579        3.3550195186
 C           6.0     0.0232436296        4.7573851741        4.6286948343
 C           6.0    -2.2126801590        5.3966794757        3.3576651350
 C           6.0     0.0130391093        6.6240565048       -0.5030450579
 C           6.0     2.2548210485        6.3073384292        0.8611481326
 C           6.0    -2.2293097477        6.3050707580        0.8603922422
 C           6.0     0.0130391093        2.5212724128        6.1623964460
 C           6.0     2.2567107745        1.1270325791        6.2827719914
 C           6.0    -2.2325222819        1.1342135378        6.2784256216
 C           6.0    -5.8248913846        4.1373660775        1.5064895574
 C           6.0    -4.4365097014        4.0608321750        3.7083982783
 C           6.0    -4.4576746324        1.9158042064        5.1663218778
 C           6.0    -7.2631618338        2.0856905726        0.7407725872
 C           6.0    -5.8634417947        2.7204495319       -3.4901349267
 C           6.0    -4.4635327830        4.7891325707       -2.7351893946
 C           6.0    -4.4504936737        5.4958900901       -0.2452864332
 C           6.0    -7.2771458061        1.3573901770       -1.7682166067
 C           6.0    -5.8477570690       -2.4817771397       -3.6483049919
 C           6.0    -4.4518164819       -1.1071904562       -5.3758924899
 C           6.0    -4.4567297694        1.4815451744       -5.3027600941
 C           6.0    -7.2782796417       -1.2513765491       -1.8343570163
 C           6.0    -5.8541821374       -4.2341200481        1.2353138782
 C           6.0    -4.4773277827       -5.4760479672       -0.6039564257
 C           6.0    -4.4739262759       -4.6029945609       -3.0407580868
 C           6.0    -7.2830039567       -2.1221622842        0.6281449183
 C           6.0    -5.8717565890       -0.1400286957        4.4285728522
 C           6.0    -4.4597533310       -2.2567107745        5.0240255110
 C           6.0    -4.4640997008       -4.3049847726        3.4362777361
 C           6.0    -7.2888621072       -0.0653845192        2.2393252955

          INTERNUCLEAR DISTANCES (ANGS.)
          ------------------------------

                1 C          2 C          3 C          4 C          5 C     

   1 C       0.0000000    1.3763181 *  1.3849591 *  2.3724302 *  3.5410199  
   2 C       1.3763181 *  0.0000000    2.4130695 *  1.3740656 *  2.3790605 *
   3 C       1.3849591 *  2.4130695 *  0.0000000    2.7775504 *  3.9982677  
   4 C       2.3724302 *  1.3740656 *  2.7775504 *  0.0000000    1.3795881 *
   5 C       3.5410199    2.3790605 *  3.9982677    1.3795881 *  0.0000000  
   6 C       4.0371310    2.8041457 *  4.8090890    2.4345121 *  1.4025943 *
   7 C       5.2154003    4.0986892    5.8548508    3.6128654    2.3665015 *
   8 C       2.7304444 *  3.9228178    2.3727143 *  4.6320434    5.5538213  
   9 C       2.3803186 *  3.4140980    2.7663443 *  4.4284596    5.2648423  
  10 C       2.3965199 *  3.5635906    1.3809241 *  3.9676822    5.0261506  
  11 C       1.3799497 *  2.2035393 *  2.4023848 *  3.4107474    4.3000219  
  12 C       2.2635906 *  2.2388541 *  3.4953556    3.4514045    3.9638166  
  13 C       3.5362437    3.5084743    4.6045862    4.5508509    4.7668412  
  14 C       4.4587982    4.0295503    5.5337876    4.8118215    4.6241654  
  15 C       3.5306801    2.4387446 *  4.6079455    2.8210266 *  2.4378071 *
  16 C       2.2610203 *  1.3810244 *  3.4990712    2.3840363 *  2.7411750 *
  17 C       4.4552926    3.6209904    5.5337618    4.1105924    3.6271928  
  18 C       4.4283553    5.2571970    3.4288424    5.2555901    5.9033875  
  19 C       4.6319282    5.5242921    3.9453111    5.7911209    6.3788182  
  20 C       3.4425922    4.3391019    2.2336168 *  4.3346514    5.2161513  
  21 C       3.9205342    4.9371378    3.5362165    5.5168050    6.2173904  
  22 C       4.3259501    5.1525512    4.3543589    5.8777843    6.3939281  
  23 C       5.3909630    5.9997849    5.4230398    6.5668140    6.8262739  
  24 C       5.7764748    6.1391371    6.1025764    6.7604174    6.8188014  
  25 C       4.0546820    4.4074761    4.8128943    5.3901676    5.6894213  
  26 C       3.5493469    4.3041069    3.9929825    5.2682010    5.8331011  
  27 C       5.2274688    5.4514276    5.8582049    6.2415922    6.2975261  
  28 C       4.4105336    4.6290429    3.4237672    3.9179131    4.3256855  
  29 C       5.2322683    5.5171899    4.3131767    4.9363835    5.1549409  
  30 C       3.4262527    3.9580798    2.2249537 *  3.5477640    4.3671224  
  31 C       5.2398410    5.7920846    4.3164699    5.5245989    5.8870993  
  32 C       5.8936542    6.3846550    5.2046797    6.2307945    6.4073989  
  33 C       6.5828568    6.8143881    6.0581576    6.5181100    6.3940009  
  34 C       7.0334158    7.2080995    6.7435391    7.0730513    6.8323992  
  35 C       5.9562867    6.5151354    5.7170572    6.8108963    6.9790104  
  36 C       5.5564989    6.2286785    5.0108544    6.3811358    6.6986996  
  37 C       6.7531228    7.0702755    6.5947870    7.2060175    7.1066461  
  38 C       2.7296902 *  2.3817291 *  2.3904747 *  1.3803738 *  2.2644057 *
  39 C       3.9192455    3.4147431    3.5518985    2.2045188 *  2.2363879 *
  40 C       2.3810725 *  2.7729561 *  1.3850706 *  2.4031841 *  3.4891915  
  41 C       4.6245798    4.4239326    3.9547681    3.4084450    3.4388017  
  42 C       5.5464291    5.2613536    5.0131122    4.3007177    3.9539677  
  43 C       5.9424045    5.3743562    5.7173207    4.3936018    3.6193671  
  44 C       6.7362035    6.2270761    6.5861339    5.4410745    4.6044018  
  45 C       6.5798998    6.5753320    6.0579648    6.0075437    5.6985601  
  46 C       5.8879924    5.8894874    5.2055971    5.1652008    5.0078114  
  47 C       7.0240368    6.7695653    6.7390291    6.1515111    5.5390187  
  48 C       5.3937711    4.5463037    5.4430383    3.5054516    2.4449185 *
  49 C       4.3334992    3.4504381    4.3772319    2.2382283 *  1.4035638 *
  50 C       5.7869349    4.8050057    6.1244627    4.0255974    2.7565743 *
  51 C       7.6010319    7.1091067    7.7158872    6.6693513    5.7723729  
  52 C       7.1117834    6.4601064    7.2159209    5.8130468    4.7898896  
  53 C       6.6835751    5.8239927    7.0140200    5.2095850    4.0228853  
  54 C       7.7067482    7.2016605    8.0281196    6.9892499    6.1026412  
  55 C       7.6269917    7.5468823    7.7372378    7.5486409    7.0442575  
  56 C       7.5449372    7.4825200    7.4384108    7.2773647    6.7823009  
  57 C       7.5343110    7.2679311    7.4301090    6.8382296    6.1562689  
  58 C       7.7149889    7.4173873    8.0349383    7.4214874    6.7373947  
  59 C       6.7727416    6.6788670    7.3193556    7.1238108    6.7548672  
  60 C       6.6841214    6.8334538    7.0024330    7.2660240    7.0694569  
  61 C       7.1285836    7.2710320    7.2234853    7.4785694    7.2113590  
  62 C       7.3081083    6.9898599    7.8404687    7.2092779    6.5871992  
  63 C       6.1983118    5.5753311    7.0630513    5.9059590    5.2219010  
  64 C       5.5948401    5.2195066    6.5158661    5.8396228    5.4686244  
  65 C       5.9193795    5.8318029    6.6570437    6.4838008    6.2520703  
  66 C       7.0489853    6.4865724    7.7225147    6.6327849    5.8436207  
  67 C       6.7861415    5.9153396    7.3396542    5.5889802    4.4549392  
  68 C       5.9098823    4.9137502    6.6542607    4.7206106    3.6216730  
  69 C       5.5866970    4.7192165    6.5117812    4.9172200    4.1083890  
  70 C       7.3151757    6.6348563    7.8503361    6.4915385    5.5131869  

                6 C          7 C          8 C          9 C         10 C     

   1 C       4.0371310    5.2154003    2.7304444 *  2.3803186 *  2.3965199 *
   2 C       2.8041457 *  4.0986892    3.9228178    3.4140980    3.5635906  
   3 C       4.8090890    5.8548508    2.3727143 *  2.7663443 *  1.3809241 *
   4 C       2.4345121 *  3.6128654    4.6320434    4.4284596    3.9676822  
   5 C       1.4025943 *  2.3665015 *  5.5538213    5.2648423    5.0261506  
   6 C       0.0000000    1.4034666 *  5.9481047    5.3766472    5.7287829  
   7 C       1.4034666 *  0.0000000    6.7473849    6.2351649    6.6015382  
   8 C       5.9481047    6.7473849    0.0000000    1.3765965 *  1.3835282 *
   9 C       5.3766472    6.2351649    1.3765965 *  0.0000000    2.4136049 *
  10 C       5.7287829    6.6015382    1.3835282 *  2.4136049 *  0.0000000  
  11 C       4.3920986    5.4437377    2.3728219 *  1.3728404 *  2.7813116 *
  12 C       3.6268781    4.6165606    3.5468742    2.3809576 *  4.0101603  
  13 C       4.1236049    4.7648666    4.0533881    2.8187186 *  4.8265132  
  14 C       3.6332011    3.9664095    5.2293804    4.1103769    5.8741711  
  15 C       1.4362952 *  2.4333671 *  5.3974009    4.5469024    5.4528098  
  16 C       2.4195421 *  3.6213629    4.3365959    3.4503223    4.3867845  
  17 C       2.4245853 *  2.7407307 *  5.7926342    4.8083354    6.1353956  
  18 C       6.5975399    7.0438650    2.7419748 *  3.9363467    2.3747587 *
  19 C       6.8110672    7.2043301    2.3785747 *  3.4151572    2.7566702 *
  20 C       6.0707260    6.7506474    2.3981947 *  3.5659506    1.3801565 *
  21 C       6.5019527    7.0574401    1.3798081 *  2.2044239 *  2.3970133 *
  22 C       6.3762677    6.8183639    2.2565672 *  2.2288481 *  3.4851133  
  23 C       6.6707978    6.8278042    3.5281749    3.5042533    4.5910125  
  24 C       6.3778330    6.3963357    4.4446173    4.0138434    5.5177843  
  25 C       5.2017999    5.6883102    3.5363458    2.4420275 *  4.6132491  
  26 C       5.6780743    6.2954599    2.2647035 *  1.3805989 *  3.5013486  
  27 C       5.6793516    5.8330330    4.4586961    3.6220784    5.5371533  
  28 C       5.3928077    5.7790412    4.4194919    5.2420341    3.4242295  
  29 C       6.0023435    6.1429268    4.6278299    5.5160170    3.9432569  
  30 C       5.4379300    6.1170474    3.4351675    4.3287609    2.2281896 *
  31 C       6.5764952    6.7705162    3.9235392    4.9404461    3.5368308  
  32 C       6.8409024    6.8327035    4.3406293    5.1682243    4.3633732  
  33 C       6.6869425    6.3940489    5.4002163    6.0081442    5.4328083  
  34 C       6.8407199    6.4071459    5.7962119    6.1580242    6.1197228  
  35 C       6.9821363    6.9798087    4.0534784    4.4080025    4.8055145  
  36 C       6.9830534    7.1073511    3.5496560    4.3060738    3.9855034  
  37 C       6.9831965    6.6997012    5.2292764    5.4537589    5.8556941  
  38 C       3.5389611    4.4576550    4.4282572    4.6438233    3.4440333  
  39 C       3.5140761    4.0248882    5.2466343    5.5278462    4.3297199  
  40 C       4.5996857    5.5245650    3.4404820    3.9671818    2.2446985 *
  41 C       4.5448185    4.7937262    5.2422906    5.7889907    4.3223211  
  42 C       4.7650518    4.6091056    5.8861401    6.3737017    5.2008929  
  43 C       4.1269598    3.6220342    6.5796765    6.8066089    6.0569448  
  44 C       4.7620218    3.9522491    7.0202474    7.1928338    6.7321368  
  45 C       6.1011046    5.6983457    5.9577731    6.5148031    5.7198832  
  46 C       5.7058270    5.5397707    5.5569436    6.2261966    5.0135589  
  47 C       5.7044266    5.0060648    6.7502224    7.0648384    6.5935883  
  48 C       2.8858244 *  2.4442081 *  6.5898659    6.5808623    6.0710014  
  49 C       2.4593795 *  2.7548257 *  5.8984760    5.8957722    5.2198814  
  50 C       2.4615692 *  1.4050089 *  7.0356020    6.7776584    6.7534987  
  51 C       5.3898944    4.3242095    7.6085644    7.5252933    7.7197095  
  52 C       4.5416240    3.4344663    7.5333110    7.4671406    7.4283472  
  53 C       3.5119525    2.2328888 *  7.5433501    7.2716732    7.4423817  
  54 C       5.4278652    4.3617009    7.7092813    7.4079215    8.0312810  
  55 C       6.6005783    5.9088697    6.7880037    6.6925373    7.3337965  
  56 C       6.5894499    5.8985569    6.6978980    6.8457133    7.0167480  
  57 C       6.0168926    5.1691463    7.1263384    7.2660793    7.2229018  
  58 C       6.0588252    5.2101196    7.3106850    6.9900932    7.8445330  
  59 C       5.9565691    5.5653442    6.1985097    5.5740751    7.0639333  
  60 C       6.5149838    6.2303976    5.5842013    5.2087748    6.5030774  
  61 C       6.8199321    6.3895135    5.9157123    5.8279961    6.6505274  
  62 C       5.7136346    5.0147175    7.0497498    6.4854986    7.7249149  
  63 C       4.0424129    3.5487054    6.7796875    5.9082835    7.3345521  
  64 C       4.4155769    4.3226367    5.9203776    4.9227184    6.6679573  
  65 C       5.3914813    5.2799690    5.5953154    4.7262254    6.5221491  
  66 C       4.7976485    3.9862749    7.3161844    6.6358820    7.8521116  
  67 C       3.5377974    2.2611775 *  7.6346705    7.1395102    7.7521094  
  68 C       2.4419509 *  1.3868801 *  7.1304084    6.4766891    7.2374579  
  69 C       2.8126178 *  2.3837335 *  6.6937967    5.8332265    7.0256615  
  70 C       4.5908858    3.4807607    7.7282547    7.2189737    8.0510307  

               11 C         12 C         13 C         14 C         15 C     

   1 C       1.3799497 *  2.2635906 *  3.5362437    4.4587982    3.5306801  
   2 C       2.2035393 *  2.2388541 *  3.5084743    4.0295503    2.4387446 *
   3 C       2.4023848 *  3.4953556    4.6045862    5.5337876    4.6079455  
   4 C       3.4107474    3.4514045    4.5508509    4.8118215    2.8210266 *
   5 C       4.3000219    3.9638166    4.7668412    4.6241654    2.4378071 *
   6 C       4.3920986    3.6268781    4.1236049    3.6332011    1.4362952 *
   7 C       5.4437377    4.6165606    4.7648666    3.9664095    2.4333671 *
   8 C       2.3728219 *  3.5468742    4.0533881    5.2293804    5.3974009  
   9 C       1.3728404 *  2.3809576 *  2.8187186 *  4.1103769    4.5469024  
  10 C       2.7813116 *  4.0101603    4.8265132    5.8741711    5.4528098  
  11 C       0.0000000    1.3811123 *  2.4409893 *  3.6228330    3.5036543  
  12 C       1.3811123 *  0.0000000    1.4001540 *  2.3772006 *  2.4491673 *
  13 C       2.4409893 *  1.4001540 *  0.0000000    1.4008794 *  2.8769837 *
  14 C       3.6228330    2.3772006 *  1.4008794 *  0.0000000    2.4522431 *
  15 C       3.5036543    2.4491673 *  2.8769837 *  2.4522431 *  0.0000000  
  16 C       2.2370337 *  1.4073016 *  2.4525837 *  2.7638337 *  1.3984253 *
  17 C       4.0261456    2.7611008 *  2.4525258 *  1.4092439 *  1.3989916 *
  18 C       4.6424527    5.5764227    5.9805467    6.7788023    6.6071141  
  19 C       4.4255718    5.2720833    5.3966614    6.2510234    6.5834921  
  20 C       3.9703276    5.0400945    5.7487826    6.6238154    6.0824912  
  21 C       3.4080238    4.3027847    4.4074460    5.4525114    6.0034583  
  22 C       3.4352991    3.9505598    3.6291655    4.6099209    5.6909486  
  23 C       4.5402784    4.7624095    4.1352746    4.7657420    6.0944772  
  24 C       4.7891400    4.6049515    3.6264743    3.9507866    5.6901797  
  25 C       2.8157579 *  2.4279781 *  1.4392608 *  2.4284033 *  4.1305269  
  26 C       2.3767446 *  2.7331577 *  2.4270258 *  3.6216706    4.7617113  
  27 C       4.1044798    3.6198713    2.4255825 *  2.7306937 *  4.7606354  
  28 C       5.2355997    5.8933263    6.5878851    7.0371450    5.9606671  
  29 C       5.7786470    6.3773231    6.8114262    7.2053667    6.5172721  
  30 C       4.3226270    5.2157950    6.0728274    6.7578053    5.7345832  
  31 C       5.5177062    6.2310894    6.5219072    7.0771369    6.8207097  
  32 C       5.8883790    6.4162002    6.4067314    6.8445154    6.9952430  
  33 C       6.5718961    6.8431486    6.6911274    6.8451591    6.9959418  
  34 C       6.7726517    6.8402918    6.4045039    6.4153888    6.9931760  
  35 C       5.3835865    5.6905331    5.2157196    5.6927103    6.6880103  
  36 C       5.2636721    5.8381979    5.6955438    6.3062383    6.8454442  
  37 C       6.2366285    6.3009148    5.6924656    5.8373298    6.8434274  
  38 C       3.9281003    4.3477889    5.4139143    5.8099007    4.0660206  
  39 C       4.9408888    5.1723503    6.0183584    6.1683092    4.4189076  
  40 C       3.5521979    4.3793974    5.4514753    6.1355004    4.8208931  
  41 C       5.5152302    5.8892242    6.5777478    6.7772988    5.3898506  
  42 C       6.2158639    6.4060289    6.8373301    6.8349734    5.6909728  
  43 C       6.5024226    6.3911072    6.6826257    6.3963150    5.2069202  
  44 C       7.0522081    6.8259809    6.8330746    6.4056885    5.6859267  
  45 C       6.8064815    6.9875752    6.9919510    6.9898917    6.6919894  
  46 C       6.3746441    6.7048888    6.9893682    7.1154817    6.4045091  
  47 C       7.1951106    7.1084171    6.9847634    6.7024195    6.4005102  
  48 C       6.0056381    5.7084442    6.1065355    5.7124529    4.1403172  
  49 C       5.1652879    5.0199925    5.7132921    5.5581530    3.6486861  
  50 C       6.1525077    5.5510889    5.7104783    5.0212310    3.6464305  
  51 C       7.5188917    7.0253811    6.5817455    5.8912096    5.9534367  
  52 C       7.2536676    6.7701291    6.5756039    5.8890361    5.3834880  
  53 C       6.8331018    6.1596380    6.0146753    5.1709416    4.4116386  
  54 C       7.4041609    6.7278291    6.0470654    5.1959034    5.7152441  
  55 C       7.1300461    6.7681482    5.9729001    5.5729116    6.6040486  
  56 C       7.2728007    7.0860041    6.5333618    6.2434814    6.8313259  
  57 C       7.4675631    7.2114232    6.8199168    6.3881893    6.5278303  
  58 C       7.2029529    6.5879679    5.7142520    5.0097853    6.0584314  
  59 C       5.8984020    5.2178023    4.0414838    3.5385604    5.3963117  
  60 C       5.8216737    5.4557159    4.4118084    4.3091714    6.0119509  
  61 C       6.4723662    6.2476605    5.3953478    5.2746132    6.5873204  
  62 C       6.6255571    5.8417668    4.7953702    3.9778795    5.4259027  
  63 C       5.5758428    4.4467398    3.5260637    2.2497501 *  3.5225710  
  64 C       4.7253299    3.6277656    2.4434761 *  1.3828185 *  3.5173306  
  65 C       4.9187122    4.1105736    2.8168561 *  2.3775698 *  4.5529438  
  66 C       6.4866206    5.5152376    4.5910490    3.4795563    4.5882342  
  67 C       6.6923113    5.8024365    5.4124771    4.3485650    4.0590335  
  68 C       5.8237866    4.8086577    4.5517867    3.4526847    2.8176449 *
  69 C       5.2121609    4.0314198    3.5149144    2.2450440 *  2.4387143 *
  70 C       6.9968467    6.1152625    5.4365431    4.3669450    4.8043845  

               16 C         17 C         18 C         19 C         20 C     

   1 C       2.2610203 *  4.4552926    4.4283553    4.6319282    3.4425922  
   2 C       1.3810244 *  3.6209904    5.2571970    5.5242921    4.3391019  
   3 C       3.4990712    5.5337618    3.4288424    3.9453111    2.2336168 *
   4 C       2.3840363 *  4.1105924    5.2555901    5.7911209    4.3346514  
   5 C       2.7411750 *  3.6271928    5.9033875    6.3788182    5.2161513  
   6 C       2.4195421 *  2.4245853 *  6.5975399    6.8110672    6.0707260  
   7 C       3.6213629    2.7407307 *  7.0438650    7.2043301    6.7506474  
   8 C       4.3365959    5.7926342    2.7419748 *  2.3785747 *  2.3981947 *
   9 C       3.4503223    4.8083354    3.9363467    3.4151572    3.5659506  
  10 C       4.3867845    6.1353956    2.3747587 *  2.7566702 *  1.3801565 *
  11 C       2.2370337 *  4.0261456    4.6424527    4.4255718    3.9703276  
  12 C       1.4073016 *  2.7611008 *  5.5764227    5.2720833    5.0400945  
  13 C       2.4525837 *  2.4525258 *  5.9805467    5.3966614    5.7487826  
  14 C       2.7638337 *  1.4092439 *  6.7788023    6.2510234    6.6238154  
  15 C       1.3984253 *  1.3989916 *  6.6071141    6.5834921    6.0824912  
  16 C       0.0000000    2.3759030 *  5.9139586    5.8965654    5.2298348  
  17 C       2.3759030 *  0.0000000    7.0568444    6.7842539    6.7669188  
  18 C       5.9139586    7.0568444    0.0000000    1.3809148 *  1.3813937 *
  19 C       5.8965654    6.7842539    1.3809148 *  0.0000000    2.4058059 *
  20 C       5.2298348    6.7669188    1.3813937 *  2.4058059 *  0.0000000  
  21 C       5.1630772    6.1527612    2.3824566 *  1.3718149 *  2.7786273 *
  22 C       5.0020852    5.5367524    3.5588132    2.3872576 *  4.0052053  
  23 C       5.7009853    5.7029732    4.0541461    2.8142280 *  4.8144348  
  24 C       5.5340397    5.0025189    5.2357288    4.1099892    5.8640641  
  25 C       3.6381281    3.6382427    5.4215753    4.5604606    5.4622016  
  26 C       3.9610692    4.6185033    4.3578415    3.4613030    4.3932680  
  27 C       4.6176418    3.9593123    5.8161986    4.8219944    6.1439068  
  28 C       5.5589267    6.7564574    2.7386607 *  3.9242432    2.3789473 *
  29 C       6.2270307    7.0697710    2.3769193 *  3.4064908    2.7616652 *
  30 C       5.0267487    6.6101412    2.3930337 *  3.5535858    1.3803497 *
  31 C       6.3875009    7.2127359    1.3788750 *  2.2001831 *  2.4006283 *
  32 C       6.7119624    7.1203095    2.2699169 *  2.2427254 *  3.4947500  
  33 C       6.9925444    6.9922036    3.5442792    3.5120872    4.6057789  
  34 C       7.1184997    6.7093545    4.4717164    4.0373093    5.5382897  
  35 C       6.4012578    6.4019154    3.5419901    2.4461520 *  4.6077844  
  36 C       6.4156717    6.8426110    2.2672733 *  1.3852916 *  3.4948127  
  37 C       6.8397568    6.4138710    4.4695539    3.6302939    5.5378030  
  38 C       3.5588327    5.2423447    4.4407311    5.2559188    3.4450084  
  39 C       4.3131007    5.4642773    4.6479381    5.5287119    3.9633387  
  40 C       4.0029794    5.8698487    3.4491584    4.3351051    2.2464953 *
  41 C       5.2676857    6.2413425    3.9333393    4.9417674    3.5496544  
  42 C       5.8338790    6.2984748    4.3385985    5.1575922    4.3650866  
  43 C       5.6819690    5.6843082    5.4092770    6.0090587    5.4385429  
  44 C       6.2922281    5.8304452    5.7926491    6.1465226    6.1136284  
  45 C       6.8443112    6.8439100    4.0607089    4.4076006    4.8136378  
  46 C       6.4147025    6.8396609    3.5534977    4.3023880    3.9937566  
  47 C       6.8359128    6.4098923    5.2360490    5.4524036    5.8604037  
  48 C       4.7694737    4.7704796    5.9790622    6.5265049    5.7381402  
  49 C       3.9698552    4.6278225    5.5767833    6.2361513    5.0317961  
  50 C       4.6241229    3.9687655    6.7737863    7.0782337    6.6123089  
  51 C       6.7472889    5.5543005    6.7860494    6.6825399    7.3233664  
  52 C       6.2355490    5.2628327    6.7018027    6.8410894    7.0136070  
  53 C       5.4573495    4.3073307    7.1528156    7.2817764    7.2421569  
  54 C       6.5859283    5.0090535    7.3240024    6.9934504    7.8481299  
  55 C       7.0507655    5.9116378    6.2271071    5.5959776    7.0831234  
  56 C       7.2238879    6.3976853    5.6094868    5.2262144    6.5225109  
  57 C       7.0797390    6.2368215    5.9266488    5.8302123    6.6563946  
  58 C       6.7381963    5.2045895    7.0698157    6.4958006    7.7351153  
  59 C       5.7874607    4.3346584    6.7988511    5.9175025    7.3407728  
  60 C       6.1596246    5.1711246    5.9259834    4.9216672    6.6597491  
  61 C       6.7853605    5.9006686    5.6048627    4.7308120    6.5199127  
  62 C       6.1069401    4.3573885    7.3353885    6.6444638    7.8600910  
  63 C       4.4464743    2.2484558 *  7.6440096    7.1378554    7.7503406  
  64 C       4.0373426    2.2476878 *  7.1587887    6.4916506    7.2549091  
  65 C       4.8131257    3.4530714    6.7217271    5.8493701    7.0407799  
  66 C       5.5153140    3.4787795    7.7427433    7.2233879    8.0557769  
  67 C       5.2356731    3.5546250    7.6554394    7.5613089    7.7597104  
  68 C       4.1088591    2.3800717 *  7.5642946    7.4865560    7.4524281  
  69 C       3.6230514    1.3806392 *  7.5670607    7.2844555    7.4562968  
  70 C       5.8519763    3.9881702    7.7488915    7.4378181    8.0601996  

               21 C         22 C         23 C         24 C         25 C     

   1 C       3.9205342    4.3259501    5.3909630    5.7764748    4.0546820  
   2 C       4.9371378    5.1525512    5.9997849    6.1391371    4.4074761  
   3 C       3.5362165    4.3543589    5.4230398    6.1025764    4.8128943  
   4 C       5.5168050    5.8777843    6.5668140    6.7604174    5.3901676  
   5 C       6.2173904    6.3939281    6.8262739    6.8188014    5.6894213  
   6 C       6.5019527    6.3762677    6.6707978    6.3778330    5.2017999  
   7 C       7.0574401    6.8183639    6.8278042    6.3963357    5.6883102  
   8 C       1.3798081 *  2.2565672 *  3.5281749    4.4446173    3.5363458  
   9 C       2.2044239 *  2.2288481 *  3.5042533    4.0138434    2.4420275 *
  10 C       2.3970133 *  3.4851133    4.5910125    5.5177843    4.6132491  
  11 C       3.4080238    3.4352991    4.5402784    4.7891400    2.8157579 *
  12 C       4.3027847    3.9505598    4.7624095    4.6049515    2.4279781 *
  13 C       4.4074460    3.6291655    4.1352746    3.6264743    1.4392608 *
  14 C       5.4525114    4.6099209    4.7657420    3.9507866    2.4284033 *
  15 C       6.0034583    5.6909486    6.0944772    5.6901797    4.1305269  
  16 C       5.1630772    5.0020852    5.7009853    5.5340397    3.6381281  
  17 C       6.1527612    5.5367524    5.7029732    5.0025189    3.6382427  
  18 C       2.3824566 *  3.5588132    4.0541461    5.2357288    5.4215753  
  19 C       1.3718149 *  2.3872576 *  2.8142280 *  4.1099892    4.5604606  
  20 C       2.7786273 *  4.0052053    4.8144348    5.8640641    5.4622016  
  21 C       0.0000000    1.3809259 *  2.4316819 *  3.6107842    3.5114724  
  22 C       1.3809259 *  0.0000000    1.4008928 *  2.3644010 *  2.4480843 *
  23 C       2.4316819 *  1.4008928 *  0.0000000    1.4034246 *  2.8882280 *
  24 C       3.6107842    2.3644010 *  1.4034246 *  0.0000000    2.4440665 *
  25 C       3.5114724    2.4480843 *  2.8882280 *  2.4440665 *  0.0000000  
  26 C       2.2447655 *  1.4048638 *  2.4580681 *  2.7508685 *  1.3991597 *
  27 C       4.0307713    2.7598874 *  2.4654551 *  1.4065172 *  1.3992040 *
  28 C       4.6277220    5.5521322    5.9468045    6.7458578    6.5908314  
  29 C       4.4143880    5.2548740    5.3669417    6.2265155    6.5763914  
  30 C       3.9587030    5.0214259    5.7239042    6.5992685    6.0755635  
  31 C       3.4045782    4.3000940    4.3918677    5.4460916    6.0144706  
  32 C       3.4454816    3.9639082    3.6272978    4.6186880    5.7151324  
  33 C       4.5410471    4.7614910    4.1185239    4.7611711    6.1067103  
  34 C       4.8038822    4.6199093    3.6293446    3.9638411    5.7131989  
  35 C       2.8134781 *  2.4348013 *  1.4357030 *  2.4344161 *  4.1424971  
  36 C       2.3764898 *  2.7412190 *  2.4218811 *  3.6249407    4.7753158  
  37 C       4.1039499    3.6239825    2.4224892 *  2.7402319 *  4.7719907  
  38 C       5.2497246    5.8975717    6.5910867    7.0374433    5.9765949  
  39 C       5.7890294    6.3780288    6.8096828    7.2030627    6.5292004  
  40 C       4.3318107    5.2142592    6.0667522    6.7473889    5.7421391  
  41 C       5.5150345    6.2185214    6.5027691    7.0588810    6.8172127  
  42 C       5.8731500    6.3926698    6.3751553    6.8179110    6.9848144  
  43 C       6.5645340    6.8271043    6.6719491    6.8296718    6.9894947  
  44 C       6.7532351    6.8144922    6.3745187    6.3933314    6.9812043  
  45 C       5.3768904    5.6798209    5.1926492    5.6798814    6.6906653  
  46 C       5.2558956    5.8244575    5.6698563    6.2878246    6.8443734  
  47 C       6.2266696    6.2854502    5.6684343    5.8222292    6.8399895  
  48 C       6.8115229    6.9817447    6.9846974    6.9828705    6.6959761  
  49 C       6.3801786    6.6988389    6.9824262    7.1068794    6.4091270  
  50 C       7.2014437    7.1037703    6.9807077    6.6979913    6.4061775  
  51 C       7.1081046    6.7406053    5.9453864    5.5529221    6.5851741  
  52 C       7.2573398    7.0630562    6.5103903    6.2259502    6.8174865  
  53 C       7.4725452    7.2054143    6.8151358    6.3833106    6.5277173  
  54 C       7.1935227    6.5712694    5.6991945    4.9985287    6.0475751  
  55 C       5.9095978    5.2268435    4.0474042    3.5525834    5.4118883  
  56 C       5.8288722    5.4598127    4.4067948    4.3139246    6.0259961  
  57 C       6.4638317    6.2338237    5.3746027    5.2625520    6.5836145  
  58 C       6.6237814    5.8345107    4.7887874    3.9761013    5.4256503  
  59 C       5.5739982    4.4400770    3.5274606    2.2506332 *  3.5214519  
  60 C       4.7139138    3.6166136    2.4385975 *  1.3854851 *  3.5135493  
  61 C       4.9130924    4.1068585    2.8124568 *  2.3850069 *  4.5564876  
  62 C       6.4837765    5.5061493    4.5870617    3.4768042    4.5858593  
  63 C       6.6826243    5.7843135    5.4034395    4.3360848    4.0501259  
  64 C       5.8304034    4.8040335    4.5557502    3.4450498    2.8183621 *
  65 C       5.2187120    4.0300809    3.5237557    2.2439974 *  2.4422062 *
  66 C       6.9931654    6.1048071    5.4312976    4.3625136    4.8052919  
  67 C       7.5467302    7.0421275    6.5992670    5.9063784    5.9777012  
  68 C       7.2665079    6.7712197    6.5798820    5.8891060    5.3944153  
  69 C       6.8395657    6.1557732    6.0180331    5.1689113    4.4175955  
  70 C       7.4228402    6.7376923    6.0612513    5.2097864    5.7287647  

               26 C         27 C         28 C         29 C         30 C     

   1 C       3.5493469    5.2274688    4.4105336    5.2322683    3.4262527  
   2 C       4.3041069    5.4514276    4.6290429    5.5171899    3.9580798  
   3 C       3.9929825    5.8582049    3.4237672    4.3131767    2.2249537 *
   4 C       5.2682010    6.2415922    3.9179131    4.9363835    3.5477640  
   5 C       5.8331011    6.2975261    4.3256855    5.1549409    4.3671224  
   6 C       5.6780743    5.6793516    5.3928077    6.0023435    5.4379300  
   7 C       6.2954599    5.8330330    5.7790412    6.1429268    6.1170474  
   8 C       2.2647035 *  4.4586961    4.4194919    4.6278299    3.4351675  
   9 C       1.3805989 *  3.6220784    5.2420341    5.5160170    4.3287609  
  10 C       3.5013486    5.5371533    3.4242295    3.9432569    2.2281896 *
  11 C       2.3767446 *  4.1044798    5.2355997    5.7786470    4.3226270  
  12 C       2.7331577 *  3.6198713    5.8933263    6.3773231    5.2157950  
  13 C       2.4270258 *  2.4255825 *  6.5878851    6.8114262    6.0728274  
  14 C       3.6216706    2.7306937 *  7.0371450    7.2053667    6.7578053  
  15 C       4.7617113    4.7606354    5.9606671    6.5172721    5.7345832  
  16 C       3.9610692    4.6176418    5.5589267    6.2270307    5.0267487  
  17 C       4.6185033    3.9593123    6.7564574    7.0697710    6.6101412  
  18 C       4.3578415    5.8161986    2.7386607 *  2.3769193 *  2.3930337 *
  19 C       3.4613030    4.8219944    3.9242432    3.4064908    3.5535858  
  20 C       4.3932680    6.1439068    2.3789473 *  2.7616652 *  1.3803497 *
  21 C       2.2447655 *  4.0307713    4.6277220    4.4143880    3.9587030  
  22 C       1.4048638 *  2.7598874 *  5.5521322    5.2548740    5.0214259  
  23 C       2.4580681 *  2.4654551 *  5.9468045    5.3669417    5.7239042  
  24 C       2.7508685 *  1.4065172 *  6.7458578    6.2265155    6.5992685  
  25 C       1.3991597 *  1.3992040 *  6.5908314    6.5763914    6.0755635  
  26 C       0.0000000    2.3753013 *  5.8991989    5.8896877    5.2216975  
  27 C       2.3753013 *  0.0000000    7.0396683    6.7756189    6.7598919  
  28 C       5.8991989    7.0396683    0.0000000    1.3820496 *  1.3846754 *
  29 C       5.8896877    6.7756189    1.3820496 *  0.0000000    2.4090554 *
  30 C       5.2216975    6.7598919    1.3846754 *  2.4090554 *  0.0000000  
  31 C       5.1711408    6.1629041    2.3851539 *  1.3742832 *  2.7809436 *
  32 C       5.0239252    5.5596163    3.5526725    2.3768757 *  4.0069484  
  33 C       5.7109307    5.7125356    4.0577016    2.8165946 *  4.8245647  
  34 C       5.5560075    5.0235064    5.2332391    4.1076682    5.8736341  
  35 C       3.6472163    3.6510168    5.3958386    4.5365442    5.4451986  
  36 C       3.9724849    4.6325371    4.3366849    3.4406275    4.3778451  
  37 C       4.6259150    3.9719891    5.7941574    4.8020733    6.1324869  
  38 C       5.5742167    6.7737313    2.7349330 *  3.9327420    2.3859862 *
  39 C       6.2385926    7.0833805    2.3740401 *  3.4160087    2.7709192 *
  40 C       5.0355883    6.6170823    2.3849867 *  3.5547613    1.3819968 *
  41 C       6.3849678    7.2096657    1.3772152 *  2.2074616 *  2.4079341 *
  42 C       6.7006625    7.1095650    2.2564103 *  2.2326533 *  3.4924013  
  43 C       6.9858284    6.9883350    3.5278107    3.5075540    4.6011069  
  44 C       7.1039175    6.6993157    4.4436326    4.0151465    5.5230894  
  45 C       6.4020291    6.4032046    3.5374932    2.4407493 *  4.6112364  
  46 C       6.4138080    6.8400125    2.2653206 *  1.3814856 *  3.5000263  
  47 C       6.8347991    6.4101969    4.4559117    3.6194169    5.5349305  
  48 C       6.8487965    6.8495904    4.0522885    4.4106204    4.8196430  
  49 C       6.4195960    6.8457955    3.5456132    4.3061118    4.0000081  
  50 C       6.8417791    6.4170174    5.2241871    5.4513214    5.8648206  
  51 C       7.0302717    5.8961737    6.1921098    5.5697327    7.0602847  
  52 C       7.2090654    6.3872700    5.5809216    5.2078139    6.5068552  
  53 C       7.0813704    6.2386424    5.9178789    5.8326434    6.6617439  
  54 C       6.7274276    5.1950006    7.0473321    6.4820484    7.7254133  
  55 C       5.8020544    4.3495698    6.7912768    5.9142392    7.3466775  
  56 C       6.1721680    5.1830999    5.9240889    4.9219597    6.6694600  
  57 C       6.7804112    5.8965919    5.5903436    4.7204283    6.5165228  
  58 C       6.1057281    4.3566516    7.3197061    6.6353203    7.8573021  
  59 C       4.4435236    2.2470978 *  7.6233132    7.1247687    7.7418779  
  60 C       4.0292658    2.2470621 *  7.1248174    6.4644897    7.2321011  
  61 C       4.8132739    3.4589733    6.6943012    5.8267333    7.0249660  
  62 C       5.5117407    3.4759201    7.7231146    7.2112768    8.0494904  
  63 C       5.2250763    3.5474454    7.6212611    7.5368495    7.7409574  
  64 C       4.1106456    2.3764083 *  7.5519424    7.4823466    7.4541816  
  65 C       3.6257385    1.3809998 *  7.5546400    7.2799117    7.4562326  
  66 C       5.8503150    3.9892697    7.7206069    7.4172226    8.0486039  
  67 C       6.7734018    5.5771134    6.7913213    6.6964371    7.3469950  
  68 C       6.2470976    5.2729554    6.6907421    6.8394613    7.0208524  
  69 C       5.4625437    4.3142841    7.1310660    7.2707398    7.2375888  
  70 C       6.6012300    5.0242194    7.3202854    7.0002132    7.8601735  

               31 C         32 C         33 C         34 C         35 C     

   1 C       5.2398410    5.8936542    6.5828568    7.0334158    5.9562867  
   2 C       5.7920846    6.3846550    6.8143881    7.2080995    6.5151354  
   3 C       4.3164699    5.2046797    6.0581576    6.7435391    5.7170572  
   4 C       5.5245989    6.2307945    6.5181100    7.0730513    6.8108963  
   5 C       5.8870993    6.4073989    6.3940009    6.8323992    6.9790104  
   6 C       6.5764952    6.8409024    6.6869425    6.8407199    6.9821363  
   7 C       6.7705162    6.8327035    6.3940489    6.4071459    6.9798087  
   8 C       3.9235392    4.3406293    5.4002163    5.7962119    4.0534784  
   9 C       4.9404461    5.1682243    6.0081442    6.1580242    4.4080025  
  10 C       3.5368308    4.3633732    5.4328083    6.1197228    4.8055145  
  11 C       5.5177062    5.8883790    6.5718961    6.7726517    5.3835865  
  12 C       6.2310894    6.4162002    6.8431486    6.8402918    5.6905331  
  13 C       6.5219072    6.4067314    6.6911274    6.4045039    5.2157196  
  14 C       7.0771369    6.8445154    6.8451591    6.4153888    5.6927103  
  15 C       6.8207097    6.9952430    6.9959418    6.9931760    6.6880103  
  16 C       6.3875009    6.7119624    6.9925444    7.1184997    6.4012578  
  17 C       7.2127359    7.1203095    6.9922036    6.7093545    6.4019154  
  18 C       1.3788750 *  2.2699169 *  3.5442792    4.4717164    3.5419901  
  19 C       2.2001831 *  2.2427254 *  3.5120872    4.0373093    2.4461520 *
  20 C       2.4006283 *  3.4947500    4.6057789    5.5382897    4.6077844  
  21 C       3.4045782    3.4454816    4.5410471    4.8038822    2.8134781 *
  22 C       4.3000940    3.9639082    4.7614910    4.6199093    2.4348013 *
  23 C       4.3918677    3.6272978    4.1185239    3.6293446    1.4357030 *
  24 C       5.4460916    4.6186880    4.7611711    3.9638411    2.4344161 *
  25 C       6.0144706    5.7151324    6.1067103    5.7131989    4.1424971  
  26 C       5.1711408    5.0239252    5.7109307    5.5560075    3.6472163  
  27 C       6.1629041    5.5596163    5.7125356    5.0235064    3.6510168  
  28 C       2.3851539 *  3.5526725    4.0577016    5.2332391    5.3958386  
  29 C       1.3742832 *  2.3768757 *  2.8165946 *  4.1076682    4.5365442  
  30 C       2.7809436 *  4.0069484    4.8245647    5.8736341    5.4451986  
  31 C       0.0000000    1.3799728 *  2.4430350 *  3.6258088    3.5004684  
  32 C       1.3799728 *  0.0000000    1.4001847 *  2.3793008 *  2.4478090 *
  33 C       2.4430350 *  1.4001847 *  0.0000000    1.4006215 *  2.8715762 *
  34 C       3.6258088    2.3793008 *  1.4006215 *  0.0000000    2.4493191 *
  35 C       3.5004684    2.4478090 *  2.8715762 *  2.4493191 *  0.0000000  
  36 C       2.2315576 *  1.4058641 *  2.4501046 *  2.7651777 *  1.4000638 *
  37 C       4.0270171    2.7624299 *  2.4494858 *  1.4069772 *  1.3989008 *
  38 C       4.6491809    5.5765561    5.9778038    6.7762793    6.5995403  
  39 C       4.4367423    5.2762186    5.3979586    6.2527092    6.5808225  
  40 C       3.9706137    5.0361688    5.7418310    6.6185541    6.0749983  
  41 C       3.4193885    4.3075866    4.4105663    5.4562472    6.0027334  
  42 C       3.4461010    3.9549132    3.6325957    4.6133826    5.6891223  
  43 C       4.5528862    4.7689685    4.1401452    4.7711458    6.0951465  
  44 C       4.7989983    4.6098270    3.6306725    3.9549593    5.6880321  
  45 C       2.8188748 *  2.4264502 *  1.4384290 *  2.4263205 *  4.1219240  
  46 C       2.3817585 *  2.7321609 *  2.4268142 *  3.6204687    4.7535846  
  47 C       4.1081294    3.6194563    2.4259137 *  2.7298125 *  4.7519048  
  48 C       5.3977571    5.6980408    5.2199070    5.6977142    6.6895947  
  49 C       5.2755630    5.8428258    5.6963976    6.3076682    6.8434605  
  50 C       6.2463509    6.3044438    5.6926734    5.8386249    6.8406808  
  51 C       5.9035279    5.2207891    4.0452738    3.5434709    5.3905814  
  52 C       5.8306734    5.4605180    4.4157261    4.3139346    6.0096803  
  53 C       6.4870467    6.2563482    5.4021072    5.2803924    6.5856595  
  54 C       6.6305323    5.8429088    4.7957704    3.9776191    5.4166770  
  55 C       5.5905318    4.4590704    3.5337547    2.2571563 *  3.5304766  
  56 C       4.7303317    3.6300975    2.4449396 *  1.3820712 *  3.5111844  
  57 C       4.9190774    4.1076385    2.8146581 *  2.3735140 *  4.5400287  
  58 C       6.4942041    5.5192590    4.5928068    3.4804321    4.5835233  
  59 C       6.6893748    5.7997951    5.4071369    4.3470095    4.0539008  
  60 C       5.8224009    4.8067422    4.5443498    3.4466152    2.8155291 *
  61 C       5.2147382    4.0333038    3.5114144    2.2417888 *  2.4403379 *
  62 C       7.0014006    6.1185584    5.4361676    4.3691013    4.8044311  
  63 C       7.5448618    7.0476154    6.5982791    5.9082526    5.9694900  
  64 C       7.2825007    6.7945768    6.5933207    5.9056182    5.4000746  
  65 C       6.8545217    6.1800636    6.0302193    5.1878573    4.4276469  
  66 C       7.4250322    6.7445438    6.0598816    5.2083745    5.7231620  
  67 C       7.1455580    6.7780150    5.9792883    5.5790088    6.6052316  
  68 C       7.2788510    7.0866641    6.5310220    6.2420031    6.8237341  
  69 C       7.4853946    7.2243737    6.8288558    6.3974717    6.5319319  
  70 C       7.2243380    6.6054677    5.7294630    5.0249858    6.0662584  

               36 C         37 C         38 C         39 C         40 C     

   1 C       5.5564989    6.7531228    2.7296902 *  3.9192455    2.3810725 *
   2 C       6.2286785    7.0702755    2.3817291 *  3.4147431    2.7729561 *
   3 C       5.0108544    6.5947870    2.3904747 *  3.5518985    1.3850706 *
   4 C       6.3811358    7.2060175    1.3803738 *  2.2045188 *  2.4031841 *
   5 C       6.6986996    7.1066461    2.2644057 *  2.2363879 *  3.4891915  
   6 C       6.9830534    6.9831965    3.5389611    3.5140761    4.5996857  
   7 C       7.1073511    6.6997012    4.4576550    4.0248882    5.5245650  
   8 C       3.5496560    5.2292764    4.4282572    5.2466343    3.4404820  
   9 C       4.3060738    5.4537589    4.6438233    5.5278462    3.9671818  
  10 C       3.9855034    5.8556941    3.4440333    4.3297199    2.2446985 *
  11 C       5.2636721    6.2366285    3.9281003    4.9408888    3.5521979  
  12 C       5.8381979    6.3009148    4.3477889    5.1723503    4.3793974  
  13 C       5.6955438    5.6924656    5.4139143    6.0183584    5.4514753  
  14 C       6.3062383    5.8373298    5.8099007    6.1683092    6.1355004  
  15 C       6.8454442    6.8434274    4.0660206    4.4189076    4.8208931  
  16 C       6.4156717    6.8397568    3.5588327    4.3131007    4.0029794  
  17 C       6.8426110    6.4138710    5.2423447    5.4642773    5.8698487  
  18 C       2.2672733 *  4.4695539    4.4407311    4.6479381    3.4491584  
  19 C       1.3852916 *  3.6302939    5.2559188    5.5287119    4.3351051  
  20 C       3.4948127    5.5378030    3.4450084    3.9633387    2.2464953 *
  21 C       2.3764898 *  4.1039499    5.2497246    5.7890294    4.3318107  
  22 C       2.7412190 *  3.6239825    5.8975717    6.3780288    5.2142592  
  23 C       2.4218811 *  2.4224892 *  6.5910867    6.8096828    6.0667522  
  24 C       3.6249407    2.7402319 *  7.0374433    7.2030627    6.7473889  
  25 C       4.7753158    4.7719907    5.9765949    6.5292004    5.7421391  
  26 C       3.9724849    4.6259150    5.5742167    6.2385926    5.0355883  
  27 C       4.6325371    3.9719891    6.7737313    7.0833805    6.6170823  
  28 C       4.3366849    5.7941574    2.7349330 *  2.3740401 *  2.3849867 *
  29 C       3.4406275    4.8020733    3.9327420    3.4160087    3.5547613  
  30 C       4.3778451    6.1324869    2.3859862 *  2.7709192 *  1.3819968 *
  31 C       2.2315576 *  4.0270171    4.6491809    4.4367423    3.9706137  
  32 C       1.4058641 *  2.7624299 *  5.5765561    5.2762186    5.0361688  
  33 C       2.4501046 *  2.4494858 *  5.9778038    5.3979586    5.7418310  
  34 C       2.7651777 *  1.4069772 *  6.7762793    6.2527092    6.6185541  
  35 C       1.4000638 *  1.3989008 *  6.5995403    6.5808225    6.0749983  
  36 C       0.0000000    2.3791002 *  5.9086611    5.8960995    5.2227159  
  37 C       2.3791002 *  0.0000000    7.0522735    6.7842744    6.7615130  
  38 C       5.9086611    7.0522735    0.0000000    1.3828692 *  1.3800378 *
  39 C       5.8960995    6.7842744    1.3828692 *  0.0000000    2.4035355 *
  40 C       5.2227159    6.7615130    1.3800378 *  2.4035355 *  0.0000000  
  41 C       5.1637241    6.1548983    2.3837957 *  1.3728916 *  2.7733931 *
  42 C       5.0022560    5.5379144    3.5576273    2.3862189 *  3.9981880  
  43 C       5.7040695    5.7064092    4.0538728    2.8133454 *  4.8100174  
  44 C       5.5351712    5.0034227    5.2307034    4.1061239    5.8556661  
  45 C       3.6326559    3.6325220    5.4154840    4.5578091    5.4509463  
  46 C       3.9551454    4.6138043    4.3519374    3.4581265    4.3811431  
  47 C       4.6129061    3.9537561    5.8061036    4.8150417    6.1298222  
  48 C       6.4055068    6.4057698    3.5441618    2.4467498 *  4.6074984  
  49 C       6.4164105    6.8428488    2.2700636 *  1.3854816 *  3.4953228  
  50 C       6.8399947    6.4137505    4.4665950    3.6273762    5.5337823  
  51 C       5.7860415    4.3336391    6.7823799    5.9052451    7.3234161  
  52 C       6.1608243    5.1724113    5.9177163    4.9154258    6.6497065  
  53 C       6.7888063    5.9021142    5.6024166    4.7319046    6.5164995  
  54 C       6.1034283    4.3514014    7.3265403    6.6413300    7.8496430  
  55 C       4.4590084    2.2559566 *  7.6503979    7.1477923    7.7563981  
  56 C       4.0369098    2.2418542 *  7.1558238    6.4934391    7.2490731  
  57 C       4.8055342    3.4430382    6.7080757    5.8405650    7.0239363  
  58 C       5.5163675    3.4754463    7.7418085    7.2278521    8.0534786  
  59 C       5.2322495    3.5535921    7.6375378    7.5498564    7.7438614  
  60 C       4.1089336    2.3766248 *  7.5542552    7.4810537    7.4444150  
  61 C       3.6271806    1.3807022 *  7.5625720    7.2840941    7.4521663  
  62 C       5.8546854    3.9906972    7.7375497    7.4313726    8.0509027  
  63 C       6.7676206    5.5711712    6.7936309    6.6943475    7.3356975  
  64 C       6.2577714    5.2787405    6.7163850    6.8603824    7.0334721  
  65 C       5.4764055    4.3248186    7.1560183    7.2917100    7.2500177  
  66 C       6.5993299    5.0188150    7.3305189    7.0051653    7.8563280  
  67 C       7.0568194    5.9150127    6.2279124    5.6000793    7.0842293  
  68 C       7.2202020    6.3935561    5.6017780    5.2226419    6.5155538  
  69 C       7.0884445    6.2436778    5.9288458    5.8376411    6.6614555  
  70 C       6.7514369    5.2155845    7.0719438    6.5030586    7.7384065  

               41 C         42 C         43 C         44 C         45 C     

   1 C       4.6245798    5.5464291    5.9424045    6.7362035    6.5798998  
   2 C       4.4239326    5.2613536    5.3743562    6.2270761    6.5753320  
   3 C       3.9547681    5.0131122    5.7173207    6.5861339    6.0579648  
   4 C       3.4084450    4.3007177    4.3936018    5.4410745    6.0075437  
   5 C       3.4388017    3.9539677    3.6193671    4.6044018    5.6985601  
   6 C       4.5448185    4.7650518    4.1269598    4.7620218    6.1011046  
   7 C       4.7937262    4.6091056    3.6220342    3.9522491    5.6983457  
   8 C       5.2422906    5.8861401    6.5796765    7.0202474    5.9577731  
   9 C       5.7889907    6.3737017    6.8066089    7.1928338    6.5148031  
  10 C       4.3223211    5.2008929    6.0569448    6.7321368    5.7198832  
  11 C       5.5152302    6.2158639    6.5024226    7.0522081    6.8064815  
  12 C       5.8892242    6.4060289    6.3911072    6.8259809    6.9875752  
  13 C       6.5777478    6.8373301    6.6826257    6.8330746    6.9919510  
  14 C       6.7772988    6.8349734    6.3963150    6.4056885    6.9898917  
  15 C       5.3898506    5.6909728    5.2069202    5.6859267    6.6919894  
  16 C       5.2676857    5.8338790    5.6819690    6.2922281    6.8443112  
  17 C       6.2413425    6.2984748    5.6843082    5.8304452    6.8439100  
  18 C       3.9333393    4.3385985    5.4092770    5.7926491    4.0607089  
  19 C       4.9417674    5.1575922    6.0090587    6.1465226    4.4076006  
  20 C       3.5496544    4.3650866    5.4385429    6.1136284    4.8136378  
  21 C       5.5150345    5.8731500    6.5645340    6.7532351    5.3768904  
  22 C       6.2185214    6.3926698    6.8271043    6.8144922    5.6798209  
  23 C       6.5027691    6.3751553    6.6719491    6.3745187    5.1926492  
  24 C       7.0588810    6.8179110    6.8296718    6.3933314    5.6798814  
  25 C       6.8172127    6.9848144    6.9894947    6.9812043    6.6906653  
  26 C       6.3849678    6.7006625    6.9858284    7.1039175    6.4020291  
  27 C       7.2096657    7.1095650    6.9883350    6.6993157    6.4032046  
  28 C       1.3772152 *  2.2564103 *  3.5278107    4.4436326    3.5374932  
  29 C       2.2074616 *  2.2326533 *  3.5075540    4.0151465    2.4407493 *
  30 C       2.4079341 *  3.4924013    4.6011069    5.5230894    4.6112364  
  31 C       3.4193885    3.4461010    4.5528862    4.7989983    2.8188748 *
  32 C       4.3075866    3.9549132    4.7689685    4.6098270    2.4264502 *
  33 C       4.4105663    3.6325957    4.1401452    3.6306725    1.4384290 *
  34 C       5.4562472    4.6133826    4.7711458    3.9549593    2.4263205 *
  35 C       6.0027334    5.6891223    6.0951465    5.6880321    4.1219240  
  36 C       5.1637241    5.0022560    5.7040695    5.5351712    3.6326559  
  37 C       6.1548983    5.5379144    5.7064092    5.0034227    3.6325220  
  38 C       2.3837957 *  3.5576273    4.0538728    5.2307034    5.4154840  
  39 C       1.3728916 *  2.3862189 *  2.8133454 *  4.1061239    4.5578091  
  40 C       2.7733931 *  3.9981880    4.8100174    5.8556661    5.4509463  
  41 C       0.0000000    1.3805189 *  2.4324118 *  3.6100410    3.5112033  
  42 C       1.3805189 *  0.0000000    1.4012556 *  2.3643004 *  2.4491127 *
  43 C       2.4324118 *  1.4012556 *  0.0000000    1.4024264 *  2.8896819 *
  44 C       3.6100410    2.3643004 *  1.4024264 *  0.0000000    2.4459992 *
  45 C       3.5112033    2.4491127 *  2.8896819 *  2.4459992 *  0.0000000  
  46 C       2.2433531 *  1.4050356 *  2.4580668 *  2.7507275 *  1.3987627 *
  47 C       4.0273357    2.7578304 *  2.4633432 *  1.4062404 *  1.3989551 *
  48 C       2.8156709 *  2.4349832 *  1.4348946 *  2.4300883 *  4.1418372  
  49 C       2.3775572 *  2.7393182 *  2.4194344 *  3.6186435    4.7713670  
  50 C       4.1033601    3.6220522    2.4213814 *  2.7343593 *  4.7675689  
  51 C       5.5680881    4.4365561    3.5234333    2.2488969 *  3.5222417  
  52 C       4.7120109    3.6157491    2.4377520 *  1.3852845 *  3.5143449  
  53 C       4.9194277    4.1145372    2.8221700 *  2.3917250 *  4.5612698  
  54 C       6.4852876    5.5093521    4.5933559    3.4828603    4.5854651  
  55 C       6.6951582    5.7950983    5.4151556    4.3438533    4.0541291  
  56 C       5.8351837    4.8094156    4.5631823    3.4521801    2.8195322 *
  57 C       5.2144649    4.0279557    3.5227234    2.2450411 *  2.4400938 *
  58 C       7.0007066    6.1124995    5.4424569    4.3713799    4.8060608  
  59 C       7.5395804    7.0355821    6.5963350    5.9013936    5.9672284  
  60 C       7.2635135    6.7665577    6.5778068    5.8828967    5.3823273  
  61 C       6.8414265    6.1560164    6.0204253    5.1677349    4.4103526  
  62 C       7.4208102    6.7354506    6.0610665    5.2067933    5.7229037  
  63 C       7.1249764    6.7560123    5.9613252    5.5630905    6.5955565  
  64 C       7.2808128    7.0839479    6.5318339    6.2397891    6.8299976  
  65 C       7.4879398    7.2202981    6.8315482    6.3950919    6.5374173  
  66 C       7.2096455    6.5868777    5.7169227    5.0116032    6.0568995  
  67 C       5.9176753    5.2345443    4.0569552    3.5573474    5.4148183  
  68 C       5.8287427    5.4595571    4.4100214    4.3120796    6.0201305  
  69 C       6.4754494    6.2448940    5.3883825    5.2704927    6.5883519  
  70 C       6.6370323    5.8488290    4.8045997    3.9900263    5.4375886  

               46 C         47 C         48 C         49 C         50 C     

   1 C       5.8879924    7.0240368    5.3937711    4.3334992    5.7869349  
   2 C       5.8894874    6.7695653    4.5463037    3.4504381    4.8050057  
   3 C       5.2055971    6.7390291    5.4430383    4.3772319    6.1244627  
   4 C       5.1652008    6.1515111    3.5054516    2.2382283 *  4.0255974  
   5 C       5.0078114    5.5390187    2.4449185 *  1.4035638 *  2.7565743 *
   6 C       5.7058270    5.7044266    2.8858244 *  2.4593795 *  2.4615692 *
   7 C       5.5397707    5.0060648    2.4442081 *  2.7548257 *  1.4050089 *
   8 C       5.5569436    6.7502224    6.5898659    5.8984760    7.0356020  
   9 C       6.2261966    7.0648384    6.5808623    5.8957722    6.7776584  
  10 C       5.0135589    6.5935883    6.0710014    5.2198814    6.7534987  
  11 C       6.3746441    7.1951106    6.0056381    5.1652879    6.1525077  
  12 C       6.7048888    7.1084171    5.7084442    5.0199925    5.5510889  
  13 C       6.9893682    6.9847634    6.1065355    5.7132921    5.7104783  
  14 C       7.1154817    6.7024195    5.7124529    5.5581530    5.0212310  
  15 C       6.4045091    6.4005102    4.1403172    3.6486861    3.6464305  
  16 C       6.4147025    6.8359128    4.7694737    3.9698552    4.6241229  
  17 C       6.8396609    6.4098923    4.7704796    4.6278225    3.9687655  
  18 C       3.5534977    5.2360490    5.9790622    5.5767833    6.7737863  
  19 C       4.3023880    5.4524036    6.5265049    6.2361513    7.0782337  
  20 C       3.9937566    5.8604037    5.7381402    5.0317961    6.6123089  
  21 C       5.2558956    6.2266696    6.8115229    6.3801786    7.2014437  
  22 C       5.8244575    6.2854502    6.9817447    6.6988389    7.1037703  
  23 C       5.6698563    5.6684343    6.9846974    6.9824262    6.9807077  
  24 C       6.2878246    5.8222292    6.9828705    7.1068794    6.6979913  
  25 C       6.8443734    6.8399895    6.6959761    6.4091270    6.4061775  
  26 C       6.4138080    6.8347991    6.8487965    6.4195960    6.8417791  
  27 C       6.8400125    6.4101969    6.8495904    6.8457955    6.4170174  
  28 C       2.2653206 *  4.4559117    4.0522885    3.5456132    5.2241871  
  29 C       1.3814856 *  3.6194169    4.4106204    4.3061118    5.4513214  
  30 C       3.5000263    5.5349305    4.8196430    4.0000081    5.8648206  
  31 C       2.3817585 *  4.1081294    5.3977571    5.2755630    6.2463509  
  32 C       2.7321609 *  3.6194563    5.6980408    5.8428258    6.3044438  
  33 C       2.4268142 *  2.4259137 *  5.2199070    5.6963976    5.6926734  
  34 C       3.6204687    2.7298125 *  5.6977142    6.3076682    5.8386249  
  35 C       4.7535846    4.7519048    6.6895947    6.8434605    6.8406808  
  36 C       3.9551454    4.6129061    6.4055068    6.4164105    6.8399947  
  37 C       4.6138043    3.9537561    6.4057698    6.8428488    6.4137505  
  38 C       4.3519374    5.8061036    3.5441618    2.2700636 *  4.4665950  
  39 C       3.4581265    4.8150417    2.4467498 *  1.3854816 *  3.6273762  
  40 C       4.3811431    6.1298222    4.6074984    3.4953228    5.5337823  
  41 C       2.2433531 *  4.0273357    2.8156709 *  2.3775572 *  4.1033601  
  42 C       1.4050356 *  2.7578304 *  2.4349832 *  2.7393182 *  3.6220522  
  43 C       2.4580668 *  2.4633432 *  1.4348946 *  2.4194344 *  2.4213814 *
  44 C       2.7507275 *  1.4062404 *  2.4300883 *  3.6186435    2.7343593 *
  45 C       1.3987627 *  1.3989551 *  4.1418372    4.7713670    4.7675689  
  46 C       0.0000000    2.3729003 *  3.6456862    3.9681088    4.6206710  
  47 C       2.3729003 *  0.0000000    3.6454324    4.6235274    3.9632818  
  48 C       3.6456862    3.6454324    0.0000000    1.3993169 *  1.3980640 *
  49 C       3.9681088    4.6235274    1.3993169 *  0.0000000    2.3756042 *
  50 C       4.6206710    3.9632818    1.3980640 *  2.3756042 *  0.0000000  
  51 C       4.4402669    2.2478882 *  4.0429509    5.2168202    3.5377949  
  52 C       4.0275753    2.2463233 *  2.8096689 *  4.1001431    2.3681907 *
  53 C       4.8174808    3.4608476    2.4448927 *  3.6259877    1.3798201 *
  54 C       5.5102777    3.4763822    4.8072728    5.8511968    3.9909313  
  55 C       5.2307138    3.5491785    5.9809686    6.7764771    5.5783540  
  56 C       4.1117743    2.3794170 *  5.4056413    6.2589898    5.2806772  
  57 C       3.6218265    1.3810367 *  4.4220311    5.4658926    4.3153890  
  58 C       5.8515122    3.9906342    5.7336066    6.6044607    5.0270860  
  59 C       6.7609615    5.5659337    6.6015641    7.0468489    5.9089291  
  60 C       6.2356506    5.2591913    6.8227508    7.2154739    6.3890848  
  61 C       5.4566093    4.3059633    6.5350644    7.0882205    6.2432062  
  62 C       6.5941501    5.0161333    6.0646639    6.7448961    5.2109304  
  63 C       7.0406089    5.9010930    5.4052744    5.7969761    4.3433946  
  64 C       7.2231542    6.3939123    6.0313221    6.1797159    5.1876078  
  65 C       7.0905067    6.2443625    6.6006476    6.7987003    5.9113299  
  66 C       6.7370079    5.2013580    5.4333303    6.1151058    4.3648951  
  67 C       5.8049641    4.3488789    3.5387475    4.4625515    2.2631021 *
  68 C       6.1657211    5.1744450    3.5153816    4.0351301    2.2471315 *
  69 C       6.7849643    5.8974840    4.5544390    4.8146009    3.4555972  
  70 C       6.1163564    4.3663770    4.5949848    5.5219660    3.4829327  

               51 C         52 C         53 C         54 C         55 C     

   1 C       7.6010319    7.1117834    6.6835751    7.7067482    7.6269917  
   2 C       7.1091067    6.4601064    5.8239927    7.2016605    7.5468823  
   3 C       7.7158872    7.2159209    7.0140200    8.0281196    7.7372378  
   4 C       6.6693513    5.8130468    5.2095850    6.9892499    7.5486409  
   5 C       5.7723729    4.7898896    4.0228853    6.1026412    7.0442575  
   6 C       5.3898944    4.5416240    3.5119525    5.4278652    6.6005783  
   7 C       4.3242095    3.4344663    2.2328888 *  4.3617009    5.9088697  
   8 C       7.6085644    7.5333110    7.5433501    7.7092813    6.7880037  
   9 C       7.5252933    7.4671406    7.2716732    7.4079215    6.6925373  
  10 C       7.7197095    7.4283472    7.4423817    8.0312810    7.3337965  
  11 C       7.5188917    7.2536676    6.8331018    7.4041609    7.1300461  
  12 C       7.0253811    6.7701291    6.1596380    6.7278291    6.7681482  
  13 C       6.5817455    6.5756039    6.0146753    6.0470654    5.9729001  
  14 C       5.8912096    5.8890361    5.1709416    5.1959034    5.5729116  
  15 C       5.9534367    5.3834880    4.4116386    5.7152441    6.6040486  
  16 C       6.7472889    6.2355490    5.4573495    6.5859283    7.0507655  
  17 C       5.5543005    5.2628327    4.3073307    5.0090535    5.9116378  
  18 C       6.7860494    6.7018027    7.1528156    7.3240024    6.2271071  
  19 C       6.6825399    6.8410894    7.2817764    6.9934504    5.5959776  
  20 C       7.3233664    7.0136070    7.2421569    7.8481299    7.0831234  
  21 C       7.1081046    7.2573398    7.4725452    7.1935227    5.9095978  
  22 C       6.7406053    7.0630562    7.2054143    6.5712694    5.2268435  
  23 C       5.9453864    6.5103903    6.8151358    5.6991945    4.0474042  
  24 C       5.5529221    6.2259502    6.3833106    4.9985287    3.5525834  
  25 C       6.5851741    6.8174865    6.5277173    6.0475751    5.4118883  
  26 C       7.0302717    7.2090654    7.0813704    6.7274276    5.8020544  
  27 C       5.8961737    6.3872700    6.2386424    5.1950006    4.3495698  
  28 C       6.1921098    5.5809216    5.9178789    7.0473321    6.7912768  
  29 C       5.5697327    5.2078139    5.8326434    6.4820484    5.9142392  
  30 C       7.0602847    6.5068552    6.6617439    7.7254133    7.3466775  
  31 C       5.9035279    5.8306734    6.4870467    6.6305323    5.5905318  
  32 C       5.2207891    5.4605180    6.2563482    5.8429088    4.4590704  
  33 C       4.0452738    4.4157261    5.4021072    4.7957704    3.5337547  
  34 C       3.5434709    4.3139346    5.2803924    3.9776191    2.2571563 *
  35 C       5.3905814    6.0096803    6.5856595    5.4166770    3.5304766  
  36 C       5.7860415    6.1608243    6.7888063    6.1034283    4.4590084  
  37 C       4.3336391    5.1724113    5.9021142    4.3514014    2.2559566 *
  38 C       6.7823799    5.9177163    5.6024166    7.3265403    7.6503979  
  39 C       5.9052451    4.9154258    4.7319046    6.6413300    7.1477923  
  40 C       7.3234161    6.6497065    6.5164995    7.8496430    7.7563981  
  41 C       5.5680881    4.7120109    4.9194277    6.4852876    6.6951582  
  42 C       4.4365561    3.6157491    4.1145372    5.5093521    5.7950983  
  43 C       3.5234333    2.4377520 *  2.8221700 *  4.5933559    5.4151556  
  44 C       2.2488969 *  1.3852845 *  2.3917250 *  3.4828603    4.3438533  
  45 C       3.5222417    3.5143449    4.5612698    4.5854651    4.0541291  
  46 C       4.4402669    4.0275753    4.8174808    5.5102777    5.2307138  
  47 C       2.2478882 *  2.2463233 *  3.4608476    3.4763822    3.5491785  
  48 C       4.0429509    2.8096689 *  2.4448927 *  4.8072728    5.9809686  
  49 C       5.2168202    4.1001431    3.6259877    5.8511968    6.7764771  
  50 C       3.5377949    2.3681907 *  1.3798201 *  3.9909313    5.5783540  
  51 C       0.0000000    1.3780840 *  2.3782966 *  1.3864360 *  2.7484325 *
  52 C       1.3780840 *  0.0000000    1.3725122 *  2.4074918 *  3.9476637  
  53 C       2.3782966 *  1.3725122 *  0.0000000    2.7742773 *  4.6603027  
  54 C       1.3864360 *  2.4074918 *  2.7742773 *  0.0000000    2.3820450 *
  55 C       2.7484325 *  3.9476637    4.6603027    2.3820450 *  0.0000000  
  56 C       2.3824696 *  3.4315410    4.4491796    2.7613133 *  1.3808523 *
  57 C       1.3802578 *  2.2257682 *  3.4336456    2.3967042 *  2.3800352 *
  58 C       2.3995145 *  3.5644369    3.9723228    1.3825249 *  1.3821045 *
  59 C       4.4395886    5.2630778    5.2644147    3.4347286    2.7541846 *
  60 C       4.6362055    5.5306752    5.8035285    3.9426988    2.3783321 *
  61 C       3.9348565    4.9600059    5.5447640    3.5405612    1.3798577 *
  62 C       3.4421807    4.3320634    4.3313845    2.2305645 *  2.3970485 *
  63 C       4.4323507    4.6414659    3.9324893    3.4363860    4.4493703  
  64 C       5.2569342    5.5386976    4.9623165    4.3233832    4.6565767  
  65 C       5.2624934    5.8116674    5.5463018    4.3256257    3.9517009  
  66 C       3.4326956    3.9536274    3.5451996    2.2275222 *  3.4468201  
  67 C       2.7413666 *  2.3798753 *  1.3769137 *  2.3953502 *  4.4554191  
  68 C       3.9287938    3.4148446    2.2092839 *  3.5522658    5.2714499  
  69 C       4.6389600    4.4293654    3.4168344    3.9579214    5.2729553  
  70 C       2.3867813 *  2.7659196 *  2.3964217 *  1.3873575 *  3.4546565  

               56 C         57 C         58 C         59 C         60 C     

   1 C       7.5449372    7.5343110    7.7149889    6.7727416    6.6841214  
   2 C       7.4825200    7.2679311    7.4173873    6.6788670    6.8334538  
   3 C       7.4384108    7.4301090    8.0349383    7.3193556    7.0024330  
   4 C       7.2773647    6.8382296    7.4214874    7.1238108    7.2660240  
   5 C       6.7823009    6.1562689    6.7373947    6.7548672    7.0694569  
   6 C       6.5894499    6.0168926    6.0588252    5.9565691    6.5149838  
   7 C       5.8985569    5.1691463    5.2101196    5.5653442    6.2303976  
   8 C       6.6978980    7.1263384    7.3106850    6.1985097    5.5842013  
   9 C       6.8457133    7.2660793    6.9900932    5.5740751    5.2087748  
  10 C       7.0167480    7.2229018    7.8445330    7.0639333    6.5030774  
  11 C       7.2728007    7.4675631    7.2029529    5.8984020    5.8216737  
  12 C       7.0860041    7.2114232    6.5879679    5.2178023    5.4557159  
  13 C       6.5333618    6.8199168    5.7142520    4.0414838    4.4118084  
  14 C       6.2434814    6.3881893    5.0097853    3.5385604    4.3091714  
  15 C       6.8313259    6.5278303    6.0584314    5.3963117    6.0119509  
  16 C       7.2238879    7.0797390    6.7381963    5.7874607    6.1596246  
  17 C       6.3976853    6.2368215    5.2045895    4.3346584    5.1711246  
  18 C       5.6094868    5.9266488    7.0698157    6.7988511    5.9259834  
  19 C       5.2262144    5.8302123    6.4958006    5.9175025    4.9216672  
  20 C       6.5225109    6.6563946    7.7351153    7.3407728    6.6597491  
  21 C       5.8288722    6.4638317    6.6237814    5.5739982    4.7139138  
  22 C       5.4598127    6.2338237    5.8345107    4.4400770    3.6166136  
  23 C       4.4067948    5.3746027    4.7887874    3.5274606    2.4385975 *
  24 C       4.3139246    5.2625520    3.9761013    2.2506332 *  1.3854851 *
  25 C       6.0259961    6.5836145    5.4256503    3.5214519    3.5135493  
  26 C       6.1721680    6.7804112    6.1057281    4.4435236    4.0292658  
  27 C       5.1830999    5.8965919    4.3566516    2.2470978 *  2.2470621 *
  28 C       5.9240889    5.5903436    7.3197061    7.6233132    7.1248174  
  29 C       4.9219597    4.7204283    6.6353203    7.1247687    6.4644897  
  30 C       6.6694600    6.5165228    7.8573021    7.7418779    7.2321011  
  31 C       4.7303317    4.9190774    6.4942041    6.6893748    5.8224009  
  32 C       3.6300975    4.1076385    5.5192590    5.7997951    4.8067422  
  33 C       2.4449396 *  2.8146581 *  4.5928068    5.4071369    4.5443498  
  34 C       1.3820712 *  2.3735140 *  3.4804321    4.3470095    3.4466152  
  35 C       3.5111844    4.5400287    4.5835233    4.0539008    2.8155291 *
  36 C       4.0369098    4.8055342    5.5163675    5.2322495    4.1089336  
  37 C       2.2418542 *  3.4430382    3.4754463    3.5535921    2.3766248 *
  38 C       7.1558238    6.7080757    7.7418085    7.6375378    7.5542552  
  39 C       6.4934391    5.8405650    7.2278521    7.5498564    7.4810537  
  40 C       7.2490731    7.0239363    8.0534786    7.7438614    7.4444150  
  41 C       5.8351837    5.2144649    7.0007066    7.5395804    7.2635135  
  42 C       4.8094156    4.0279557    6.1124995    7.0355821    6.7665577  
  43 C       4.5631823    3.5227234    5.4424569    6.5963350    6.5778068  
  44 C       3.4521801    2.2450411 *  4.3713799    5.9013936    5.8828967  
  45 C       2.8195322 *  2.4400938 *  4.8060608    5.9672284    5.3823273  
  46 C       4.1117743    3.6218265    5.8515122    6.7609615    6.2356506  
  47 C       2.3794170 *  1.3810367 *  3.9906342    5.5659337    5.2591913  
  48 C       5.4056413    4.4220311    5.7336066    6.6015641    6.8227508  
  49 C       6.2589898    5.4658926    6.6044607    7.0468489    7.2154739  
  50 C       5.2806772    4.3153890    5.0270860    5.9089291    6.3890848  
  51 C       2.3824696 *  1.3802578 *  2.3995145 *  4.4395886    4.6362055  
  52 C       3.4315410    2.2257682 *  3.5644369    5.2630778    5.5306752  
[...]
  135  C 34  Y   -0.022766   0.064438  -0.138026   0.026024   0.000899
  136  C 34  Z    0.004704  -0.032030   0.095632  -0.017225   0.002327
  137  C 35  S   -0.001368  -0.028446   0.035553  -0.000552   0.008136
  138  C 35  X   -0.000002  -0.000058   0.000021   0.016135  -0.000046
  139  C 35  Y    0.021289  -0.071419   0.030979  -0.000186   0.015260
  140  C 35  Z   -0.097926   0.181389  -0.252404   0.002128  -0.013527
  141  C 36  S   -0.001423   0.027817  -0.001890  -0.009686  -0.008494
  142  C 36  X   -0.008682   0.035352   0.015821  -0.011441  -0.007953
  143  C 36  Y   -0.032568   0.060699  -0.005085  -0.011116  -0.004482
  144  C 36  Z    0.063327  -0.166686   0.041179   0.030118   0.023408
  145  C 37  S   -0.001404   0.027732  -0.001755   0.009673  -0.008579
  146  C 37  X    0.008654  -0.035306  -0.015893  -0.010864   0.008046
  147  C 37  Y   -0.032634   0.060723  -0.004866   0.011285  -0.004595
  148  C 37  Z    0.063457  -0.166785   0.040988  -0.030750   0.023692
  149  C 38  S   -0.027968   0.004018  -0.000366  -0.072758   0.010105
  150  C 38  X   -0.160918   0.018831  -0.001442  -0.173946  -0.009219
  151  C 38  Y    0.004029  -0.001900  -0.018087   0.005465  -0.002911
  152  C 38  Z   -0.141274   0.019833  -0.002168  -0.164298   0.063927
  153  C 39  S   -0.005517  -0.005785   0.028769   0.025974  -0.060552
  154  C 39  X   -0.016886  -0.006094   0.043025   0.066485  -0.083250
  155  C 39  Y   -0.035185  -0.003098   0.035070  -0.002617  -0.072187
  156  C 39  Z   -0.053917   0.013216   0.084965   0.081088  -0.133364
  157  C 40  S    0.030426   0.005178  -0.000368   0.030224   0.063003
  158  C 40  X    0.201146  -0.017453   0.001092   0.074158   0.212271
  159  C 40  Y   -0.004194  -0.000029  -0.004143  -0.002616  -0.002811
  160  C 40  Z    0.095013  -0.007034   0.000369   0.071664   0.052046
  161  C 41  S    0.023420   0.023069  -0.017789   0.025747   0.063266
  162  C 41  X    0.080089   0.035733  -0.024302   0.066233   0.085991
  163  C 41  Y    0.089151   0.064688  -0.016618   0.075949   0.098552
  164  C 41  Z    0.080653   0.058141  -0.026300   0.027273   0.119386
  165  C 42  S    0.000018  -0.023199  -0.014572  -0.009483  -0.001535
  166  C 42  X   -0.001218  -0.038811  -0.002486  -0.011166  -0.029733
  167  C 42  Y    0.053826  -0.111119  -0.089380  -0.025294   0.022907
  168  C 42  Z    0.024308  -0.080657  -0.080170  -0.019667   0.017687
  169  C 43  S   -0.006568   0.008228   0.045728   0.000086  -0.052447
  170  C 43  X   -0.000095   0.000025   0.000248   0.015955  -0.000192
  171  C 43  Y   -0.081332   0.062342   0.216373   0.000089  -0.120748
  172  C 43  Z   -0.092474   0.008884   0.228511  -0.000120  -0.166931
  173  C 44  S    0.000011  -0.023288  -0.014570   0.009293  -0.001583
  174  C 44  X    0.001337   0.038662   0.002294  -0.010917   0.029845
  175  C 44  Y    0.053806  -0.111523  -0.089363   0.025083   0.022768
  176  C 44  Z    0.024297  -0.080846  -0.080162   0.019314   0.017599
  177  C 45  S    0.012560   0.025348   0.038063   0.000334  -0.042042
  178  C 45  X    0.000090   0.000179   0.000237   0.015760  -0.000195
  179  C 45  Y    0.097372   0.177754   0.262581   0.001385  -0.146679
  180  C 45  Z   -0.021616  -0.049888  -0.003536  -0.000487   0.021713
  181  C 46  S    0.001452   0.006771  -0.026768  -0.009064   0.008119
  182  C 46  X    0.011970   0.026049  -0.028808  -0.010542  -0.010270
  183  C 46  Y   -0.018293   0.015766  -0.181139  -0.030647   0.044064
  184  C 46  Z   -0.014388   0.009498  -0.003223  -0.000951  -0.002471
  185  C 47  S    0.001483   0.006844  -0.026773   0.009231   0.008025
  186  C 47  X   -0.012056  -0.026091   0.028493  -0.011097   0.010456
  187  C 47  Y   -0.018251   0.016051  -0.181440   0.030601   0.043869
  188  C 47  Z   -0.014397   0.009575  -0.003262   0.000831  -0.002480
  189  C 48  S    0.009104   0.044253  -0.012443   0.000134   0.060092
  190  C 48  X   -0.000010   0.000137  -0.000100   0.015872   0.000106
  191  C 48  Y   -0.008983   0.112012  -0.071378   0.000136   0.111294
  192  C 48  Z   -0.038524   0.283540  -0.069720   0.000480   0.194972
  193  C 49  S    0.002218  -0.023258  -0.014735  -0.009451  -0.004422
  194  C 49  X    0.016087  -0.019168  -0.033839  -0.011145   0.025093
  195  C 49  Y    0.015833  -0.051548  -0.012350  -0.008930  -0.015448
  196  C 49  Z    0.056790  -0.159147  -0.070840  -0.030560  -0.044319
  197  C 50  S    0.002245  -0.023437  -0.014740   0.009313  -0.004533
  198  C 50  X   -0.016045   0.019109   0.033757  -0.011056  -0.024987
  199  C 50  Y    0.015857  -0.051573  -0.012391   0.008761  -0.015483
  200  C 50  Z    0.056840  -0.159456  -0.070745   0.030049  -0.044580
  201  C 51  S   -0.009308   0.001601   0.003685   0.072749  -0.007755
  202  C 51  X    0.053528  -0.007221  -0.017377  -0.173791  -0.007311
  203  C 51  Y   -0.034073   0.012929   0.015074   0.154955  -0.043154
  204  C 51  Z   -0.044187  -0.013204   0.012672   0.055730  -0.027302
  205  C 52  S    0.023429   0.023108  -0.017770  -0.025563   0.063427
  206  C 52  X   -0.079903  -0.035643   0.024238   0.065655  -0.086200
  207  C 52  Y    0.089276   0.064862  -0.016647  -0.075582   0.099172
  208  C 52  Z    0.080678   0.058222  -0.026246  -0.026812   0.119498
  209  C 53  S   -0.005500  -0.005746   0.028710  -0.025972  -0.060271
  210  C 53  X    0.016819   0.006100  -0.042897   0.066717   0.082605
  211  C 53  Y   -0.035246  -0.003114   0.035124   0.002330  -0.072335
  212  C 53  Z   -0.053963   0.013354   0.084891  -0.081558  -0.132704
  213  C 54  S    0.010224   0.001902   0.004906  -0.030327  -0.049213
  214  C 54  X   -0.067002   0.006641   0.015908   0.074215   0.165285
  215  C 54  Y    0.040784  -0.001262  -0.006538  -0.067351  -0.034386
  216  C 54  Z   -0.019516  -0.004506  -0.000765  -0.024648  -0.024923
  217  C 55  S    0.022271  -0.002980   0.002592   0.072737   0.002378
  218  C 55  X   -0.127806   0.014159  -0.012188  -0.173934   0.003073
  219  C 55  Y    0.053816  -0.018356  -0.003070   0.100859   0.023212
  220  C 55  Z   -0.100481   0.004739  -0.018617  -0.129302  -0.002390
  221  C 56  S    0.021341   0.023960   0.016577  -0.025385  -0.039677
  222  C 56  X   -0.070722  -0.033766  -0.026578   0.065582   0.052925
  223  C 56  Y    0.132785   0.051582   0.062628  -0.048407  -0.087326
  224  C 56  Z   -0.059500  -0.020616  -0.039203   0.063210   0.034272
  225  C 57  S   -0.027535  -0.029026   0.003332  -0.026190   0.032668
  226  C 57  X    0.092704   0.042489  -0.007318   0.066782  -0.045576
  227  C 57  Y   -0.164178  -0.083203   0.039301  -0.076922   0.083756
  228  C 57  Z    0.016316   0.008897   0.004609  -0.027307  -0.015271
  229  C 58  S   -0.024210  -0.004040   0.003264  -0.030757   0.016618
  230  C 58  X    0.159856  -0.013255   0.011507   0.075959  -0.055820
  231  C 58  Y   -0.062955   0.001178  -0.005327  -0.044231   0.022906
  232  C 58  Z    0.046845  -0.005760   0.001713   0.057094   0.000199
  233  C 59  S    0.023004  -0.003373  -0.002041   0.072830   0.003322
  234  C 59  X   -0.132705   0.015848   0.009857  -0.173911   0.003930
  235  C 59  Y   -0.050165   0.017410  -0.006866  -0.092489  -0.026032
  236  C 59  Z   -0.106558   0.008512   0.017151  -0.136664  -0.009128
  237  C 60  S   -0.010210  -0.008416   0.027724  -0.026454   0.001099
  238  C 60  X    0.036224   0.014894  -0.040275   0.067145  -0.000423
  239  C 60  Y    0.015029   0.015995  -0.008969   0.045542   0.000343
  240  C 60  Z    0.028269   0.051137  -0.074437   0.068562   0.002362
  241  C 61  S   -0.011487  -0.012164  -0.026391  -0.025235   0.007523
  242  C 61  X    0.040547   0.020140   0.038001   0.065600  -0.009178
  243  C 61  Y   -0.018498  -0.021070  -0.011284  -0.049777   0.001545
  244  C 61  Z    0.035182   0.059496   0.066408   0.062696  -0.013376
  245  C 62  S   -0.025187  -0.004461  -0.002744  -0.029569   0.022538
  246  C 62  X    0.165936  -0.014586  -0.009327   0.071893  -0.075748
  247  C 62  Y    0.059823  -0.001431  -0.004906   0.039705  -0.025021
  248  C 62  Z    0.053976  -0.006092  -0.001125   0.058895  -0.005682
  249  C 63  S   -0.008016   0.000992  -0.003891   0.072699  -0.008325
  250  C 63  X    0.045937  -0.004592   0.018290  -0.174056  -0.007822
  251  C 63  Y    0.030244  -0.009576   0.017358  -0.156992   0.048718
  252  C 63  Z   -0.040392  -0.015560  -0.009679   0.045593  -0.024064
  253  C 64  S   -0.027586  -0.029198   0.000684  -0.024842   0.038167
  254  C 64  X    0.093453   0.043388   0.001590   0.065007  -0.053286
  255  C 64  Y    0.161837   0.087232   0.028044   0.075061  -0.095478
  256  C 64  Z    0.026397   0.014053  -0.003954  -0.023070  -0.024136
  257  C 65  S    0.020552   0.021651  -0.019738  -0.026596  -0.044877
  258  C 65  X   -0.067889  -0.030163   0.031024   0.067369   0.060182
  259  C 65  Y   -0.125159  -0.041817   0.065970   0.046910   0.096550
  260  C 65  Z   -0.065689  -0.018157   0.045969   0.067555   0.045644
  261  C 66  S    0.008782   0.001304  -0.005096  -0.031030  -0.052845
  262  C 66  X   -0.057549   0.004049  -0.016818   0.076758   0.177813
  263  C 66  Y   -0.035105   0.000465  -0.006764   0.069391   0.038991
  264  C 66  Z   -0.023951  -0.004289   0.000895  -0.020027  -0.022046
  265  C 67  S   -0.027998   0.004020  -0.000333   0.072820   0.009615
  266  C 67  X    0.160916  -0.018828   0.001430  -0.173774   0.010392
  267  C 67  Y    0.003699  -0.001867  -0.018094  -0.005341  -0.002946
  268  C 67  Z   -0.141335   0.019842  -0.002132   0.164620   0.062748
  269  C 68  S   -0.006817  -0.009687  -0.027574  -0.026357  -0.062790
  270  C 68  X    0.021397   0.011826   0.041665   0.066867   0.085766
  271  C 68  Y    0.041897   0.007717   0.039855   0.003173   0.083614
  272  C 68  Z   -0.058181   0.002012  -0.083359  -0.081768  -0.132241
  273  C 69  S    0.024022   0.025355   0.014380  -0.025352   0.064979
  274  C 69  X   -0.082467  -0.038770  -0.019288   0.065800  -0.088781
  275  C 69  Y   -0.098021  -0.070400  -0.008770   0.077037  -0.109733
  276  C 69  Z    0.078619   0.056800   0.017533  -0.021628   0.116017
  277  C 70  S    0.030404   0.005190  -0.000333  -0.029828   0.063129
  278  C 70  X   -0.201172   0.017429  -0.001295   0.072837  -0.212637
  279  C 70  Y   -0.003816  -0.000034  -0.004145   0.002146  -0.002476
  280  C 70  Z    0.095075  -0.007028   0.000420  -0.071361   0.052538

     ----------------------------------------------------------------
     PROPERTY VALUES FOR THE RHF   SELF-CONSISTENT FIELD WAVEFUNCTION
     ----------------------------------------------------------------

                    -------------
                    MOPAC CHARGES
                    -------------
         ATOM NO.   TYPE          CHARGE        ATOM  ELECTRON DENSITY
           1         C             -0.0107          4.0107
           2         C              0.0063          3.9937
           3         C              0.0053          3.9947
           4         C              0.0060          3.9940
           5         C             -0.0177          4.0177
           6         C              0.0288          3.9712
           7         C             -0.0177          4.0177
           8         C             -0.0106          4.0106
           9         C              0.0062          3.9938
          10         C              0.0052          3.9948
          11         C              0.0061          3.9939
          12         C             -0.0178          4.0178
          13         C              0.0288          3.9712
          14         C             -0.0178          4.0178
          15         C              0.0290          3.9710
          16         C             -0.0180          4.0180
          17         C             -0.0180          4.0180
          18         C             -0.0106          4.0106
          19         C              0.0063          3.9937
          20         C              0.0051          3.9949
          21         C              0.0060          3.9940
          22         C             -0.0178          4.0178
          23         C              0.0288          3.9712
          24         C             -0.0178          4.0178
          25         C              0.0290          3.9710
          26         C             -0.0180          4.0180
          27         C             -0.0180          4.0180
          28         C             -0.0107          4.0107
          29         C              0.0064          3.9936
          30         C              0.0053          3.9947
          31         C              0.0060          3.9940
          32         C             -0.0176          4.0176
          33         C              0.0287          3.9713
          34         C             -0.0176          4.0176
          35         C              0.0291          3.9709
          36         C             -0.0181          4.0181
          37         C             -0.0181          4.0181
          38         C             -0.0106          4.0106
          39         C              0.0063          3.9937
          40         C              0.0051          3.9949
          41         C              0.0060          3.9940
          42         C             -0.0176          4.0176
          43         C              0.0287          3.9713
          44         C             -0.0176          4.0176
          45         C              0.0292          3.9708
          46         C             -0.0182          4.0182
          47         C             -0.0182          4.0182
          48         C              0.0292          3.9708
          49         C             -0.0182          4.0182
          50         C             -0.0181          4.0181
          51         C             -0.0106          4.0106
          52         C              0.0059          3.9941
          53         C              0.0063          3.9937
          54         C              0.0052          3.9948
          55         C             -0.0107          4.0107
          56         C              0.0060          3.9940
          57         C              0.0063          3.9937
          58         C              0.0052          3.9948
          59         C             -0.0105          4.0105
          60         C              0.0059          3.9941
          61         C              0.0063          3.9937
          62         C              0.0051          3.9949
          63         C             -0.0107          4.0107
          64         C              0.0062          3.9938
          65         C              0.0062          3.9938
          66         C              0.0054          3.9946
          67         C             -0.0106          4.0106
          68         C              0.0060          3.9940
          69         C              0.0063          3.9937
          70         C              0.0051          3.9949

          ---------------------
          ELECTROSTATIC MOMENTS
          ---------------------

 POINT   1           X           Y           Z (ANGS)      CHARGE
                 0.000000    0.000000    0.000000        0.00 (A.U.)
         DX          DY          DZ         /D/  (DEBYE)
     0.000316   -0.000587    0.002443    0.002532
 ...... END OF PROPERTY EVALUATION ......
 CPU     0: STEP CPU TIME=     0.09 TOTAL CPU TIME=          2.3 (      0.0 MIN)
 TOTAL WALL CLOCK TIME=          3.1 SECONDS, CPU UTILIZATION IS    76.72%
  $VIB   
          IVIB=   0 IATOM=   0 ICOORD=   0 E=     -303.7844950103
  5.900818591E-05-5.560213417E-05 4.210138310E-05-1.519255325E-04 2.114132492E-04
 -7.526562292E-05 3.105233554E-05 1.839101017E-05 2.652162107E-05-1.328028026E-05
 -3.902374515E-05-3.950899388E-05-1.320598522E-04 1.104803165E-04-2.950509062E-04
 -2.508903405E-05-2.781888410E-04 4.959570952E-04 1.607804062E-04 6.055033194E-05
 -4.175298761E-04 1.103888129E-04-5.832587357E-05-1.416083442E-04-7.573673433E-05
  2.334194324E-05 8.462504645E-05-3.548123743E-05 6.064136777E-05 3.463958079E-05
 -6.385641099E-05 3.587459845E-05-5.508989106E-05-6.517706989E-05 1.395121366E-04
  3.514056697E-05-1.914798042E-05 1.572278209E-04-6.382752975E-05-1.191121098E-05
 -1.175559895E-05-2.430788417E-06-2.544828366E-05 5.180261273E-04-3.254478264E-04
  1.359814890E-04-3.373019893E-04 9.693510908E-05-1.370263597E-04-3.021644146E-04
  1.496375978E-04 9.143925167E-05 3.129295248E-05-1.093260885E-04-1.761556656E-04
 -1.678113250E-04 2.735336142E-04-1.122801428E-04-6.350531545E-05 3.712618749E-05
 -6.927799740E-05 1.078550339E-04 1.044773211E-04 4.570358853E-05-8.688550655E-05
 -7.521388582E-05-2.903921697E-05 7.695692930E-05-2.391214851E-05-9.534054126E-05
 -9.997458553E-05-2.590417069E-04-3.556191658E-05-3.404263926E-04-1.664473491E-04
 -9.407740027E-05 2.104771775E-04 1.382353938E-04 1.780474791E-04 2.969612339E-04
  3.616526087E-04 1.093063818E-04 1.435722392E-04 5.210247574E-05-2.238700899E-04
 -2.930792199E-04-5.103865764E-05 5.570392464E-05-2.774357577E-05 3.974256841E-06
  1.070132688E-04 1.912332158E-04-4.660521856E-05-2.972725436E-04-5.630599607E-04
  4.523921462E-04-2.920542611E-05 6.473370352E-04-2.942256869E-04 2.171484771E-04
 -3.679382164E-04 3.714791364E-04-2.394920939E-05-2.441065379E-04 5.980986516E-04
  2.648855148E-04 3.592889805E-04-5.491336808E-04-2.249340877E-04 2.283157567E-04
 -4.770363033E-04 1.057890742E-04-1.394816235E-05 1.285267021E-04-6.430563934E-05
  4.184169232E-05-9.353155358E-05-1.503606729E-04-2.922248389E-06-1.006999441E-04
 -1.121655367E-04-1.364495045E-04-3.588454542E-05-7.632643628E-05-1.204454019E-04
 -1.397461326E-04-3.065277848E-05 1.008664275E-04 1.737894672E-04 7.876295299E-05
 -1.543411818E-04-7.142747246E-05-2.832554372E-05-5.540488601E-04-5.849257464E-05
  1.479179740E-04 3.121659937E-04 1.301793268E-04-1.045772613E-04 2.434039109E-04
  4.120310810E-05-2.140094695E-05-3.901493610E-05-2.304982480E-04 7.007782937E-05
 -3.148650836E-05 1.117237701E-04-1.089365040E-04 4.249137249E-05 2.280851530E-04
 -5.839209482E-05 7.803492065E-05 2.509673834E-05 1.157460470E-04-9.547412168E-05
  7.498635878E-07 1.461833934E-04 1.948025223E-05-1.678735860E-04-1.043578220E-04
  9.963157773E-06 1.464350103E-05-1.855564806E-04 9.624102439E-05-1.684015963E-04
  6.854988906E-05 1.063558464E-05 4.397377382E-05 1.374576010E-04-1.286886905E-04
 -5.908403563E-05 1.756924775E-04-6.415652805E-05 4.655296328E-05-6.473536481E-05
 -2.255989864E-05-9.101983729E-05 1.384548959E-04 1.164764878E-04 1.634214241E-04
  1.846556783E-04-1.555641418E-04 2.193718536E-04 1.707355225E-05 4.363689574E-05
  7.710933967E-06-1.774720713E-04-1.837142396E-04 8.483442616E-05 2.444294714E-04
  2.409044547E-04-3.655857726E-05-4.397727257E-05-1.614200288E-04-4.095042864E-05
  1.557061512E-05 3.955547526E-05 1.799106690E-05-1.483369738E-04-7.747301177E-06
  1.498807214E-04 7.532880626E-06-6.352206922E-05 2.777246186E-05 2.296008754E-04
  2.619662643E-04-1.193820419E-04 1.970293001E-04-1.401631537E-05-9.284596910E-05
  3.156439380E-04-5.872886757E-04 2.443010755E-03
 ......END OF GEOMETRY SEARCH......
 CPU     0: STEP CPU TIME=     0.05 TOTAL CPU TIME=          2.4 (      0.0 MIN)
 TOTAL WALL CLOCK TIME=          3.1 SECONDS, CPU UTILIZATION IS    77.07%
                875420  WORDS OF DYNAMIC MEMORY USED
 EXECUTION OF GAMESS TERMINATED NORMALLY 21:11:21 27-MAY-2023    
 DDI: 263640 bytes (0.3 MB / 0 MWords) used by master data server.

 ----------------------------------------
 CPU timing information for all processes
 ========================================
 0: 1.734375 + 0.656250 = 2.390625
 1: 1.671875 + 0.515625 = 2.187500
 2: 0.656250 + 1.171875 = 1.828125
 3: 0.968750 + 1.125000 = 2.093750
 ----------------------------------------
           Disk usage (in bytes)       
 ========================================
 ----------------------------------------
            Local date and time          
 ========================================
27.05.2023 - 21:11:21,65                          
