          *******************************************************
          *                                                     *
          *          GAMESS VERSION = 30 SEP 2022 (R2)          *
          *                                                     *
          *              doi.org/10.1063/5.0005188              *
          *                                                     *
          *************** 64 BIT WINDOWS VERSION ****************

  GAMESS HAS BEEN MADE POSSIBLE WITH IMPORTANT CONTRIBUTIONS FROM
  THE FOLLOWING INDIVIDUALS (IN ALPHABETICAL ORDER):

     IVANA ADAMOVIC, CHRISTINE AIKENS, TOMOKO AKAMA,
     MELISA ALKAN, YURI ALEXEEV, YURIKO AOKI, POOJA ARORA,
     TOSHIO ASADA, ANDREY ASADCHEV, KIM K. BALDRIDGE,
     PRADIPTA BANDYOPADHYAY, TAYLOR A. BARNES, MARIA BARYSZ,
     ROB BELL, JONATHAN BENTZ, COLLEEN BERTONI,
     JERRY A. BOATZ, BRETT BODE, KURT BRORSEN, KURT R. BRORSEN,
     LAIMUTIS BYTAUTAS, CALEB CARLIN, LAURA CARRINGTON,
     GALINA CHABAN, BENOIT CHAMPAGNE, WEI CHEN, MAHITO CHIBA,
     DAN CHIPMAN, CHEOL HO CHOI, TANNER CULPITT,
     DIPAYAN DATTA, PAUL DAY, ALBERT DEFUSCO,
     NUWAN DESILVA, J. EMILIANO DEUSTUA,
     TIM DUDLEY, MICHEL DUPUIS, STEVEN T. ELBERT,
     DMITRI FEDOROV, KATHERINE FERRERAS, MICHAEL FILATOV,
     ALEX FINDLATER,GRAHAM FLETCHER, MARK FREITAG,
     CHRISTIAN FRIEDL, DAVID GARMER, 
     IGOR S. GERASIMOV, KURT GLAESEMANN,
     MARK S. GORDON, JEFFREY GOUR, FENG LONG GU,
     EMILIE B. GUIDEZ, ANASTASIA GUNINA, SHARON HAMMES-SCHIFFER,
     MASATAKE HARUTA, KIMIHIKO HIRAO, YASUHIRO IKABATA,
     TZVETELIN IORDANOV, STEPHAN IRLE, KAZUYA ISHIMURA,
     JOE IVANIC, FRANK JENSEN, JAN H. JENSEN, VISVALDAS KAIRYS,
     MUNEAKI KAMIYA, MICHIO KATOUDA, NAOAKI KAWAKAMI, DAN KEMP,
     BERNARD KIRTMAN, KAZUO KITAURA, MARIUSZ KLOBUKOWSKI,
     MASATO KOBAYASHI, KONSTANTIN KOMAROV, PRAKASHAN KORAMBATH,
     JACEK KORCHOWIEC, SHIRO KOSEKI, KAROL KOWALSKI,
     JIMMY KROMANN, STANISLAW KUCHARSKI, HENRY KURTZ,
     SAROM SOK LEANG, SEUNGHOON LEE, HUI LI, SHUHUA LI, WEI LI,
     JESSE LUTZ, ALEKSANDR O. LYKHIN, MARCIN MAKOWSKI,
     JOANI MATO, NIKITA MATSUNAGA, BENEDETTA MENNUCCI,
     GRANT MERRILL, NORIYUKI MINEZAWA, VLADIMIR MIRONOV,
     EISAKU MIYOSHI, JOHN A. MONTGOMERY JR., HIROTOSHI MORI,
     JONATHAN MULLIN, MONIKA MUSIAL, SHIGERU NAGASE,
     TAKESHI NAGATA, HIROMI NAKAI, TAKAHITO NAKAJIMA,
     YUYA NAKAJIMA, HARUYUKI NAKANO, HIROYA NAKATA, SEAN NEDD,
     HEATHER NETZLOFF, KIET A. NGUYEN, YOSHIO NISHIMOTO,
     BOSILJKA NJEGIC, RYAN OLSON, MIKE PAK, ROBERTO PEVERATI,
     BUU PHAM, PIOTR PIECUCH, ANNA POMOGAEVA, DAVID POOLE,
     SPENCER PRUITT, OLIVIER QUINET, LUKE ROSKOP,
     KLAUS RUEDENBERG, ANDREW SAND, TOSAPORN SATTASATHUCHANA,
     NOZOMI SAWADA, MICHAEL W. SCHMIDT, PATRICK E. SCHNEIDER,
     JUNJI SEINO, PRACHI SHARMA, JUN SHEN, JIM SHOEMAKER,
     YINAN SHU, DEJUN SI, JONATHAN SKONE, LYUDMILA SLIPCHENKO,
     TONY SMITH, JIE SONG, MARK SPACKMAN, CASPER STEINMANN,
     WALT STEVENS, PEIFENG SU, SHUJUN SU, CHET SWALINA,
     CHINAMI TAKASHIMA, TETSUYA TAKETSUGU, ZHEN TAO,
     NANDUN THELLAMUREGE, SEIKEN TOKURA, JACOPO TOMASI,
     TSUGUKI TOUMA, TAKAO TSUNEDA, HIROAKI UMEDA,
     JORGE LUIS GALVEZ VALLEJO, YALI WANG, SIMON WEBB,
     AARON WEST, THERESA L. WINDUS, MARTA WLOCH,
     PENG XU, KIYOSHI YAGI, SUSUMU YANAGISAWA, YANG YANG,
     SOOHAENG YOO, TAKESHI YOSHIKAWA, FEDERICO ZAHARIEV,
     TOBY ZENG

  WHO ARE SUPPORTED BY THEIR INSTITUTION/UNIVERSITY/COMPANY/GROUP
  (IN ALPHABETICAL ORDER):

     EP ANALYTICS,
     FACULTES UNIVERSITAIRES NOTRE-DAME DE LA PAIX,
     INSTITUTE FOR MOLECULAR SCIENCE, IOWA STATE UNIVERSITY,
     JACKSON STATE UNIVERSITY, JOHANNES KEPLER UNIVERSITY LINZ,
     KYUNGPOOK NATIONAL UNIVERSITY
     KYUSHU UNIVERSITY, MICHIGAN STATE UNIVERSITY,
     MIE UNIVERSITY, THE MOLECULAR SCIENCES SOFTWARE INSTITUTE,
     MOSCOW STATE UNIVERSITY,
     N. COPERNICUS UNIVERSITY, NAGOYA UNIVERSITY,
     NANJING UNIVERSITY, NAT. INST. OF ADVANCED INDUSTRIAL
     SCIENCE AND TECHNOLOGY, NATIONAL INST. OF STANDARDS AND
     TECHNOLOGY, NESMEYANOV INSTITUTE OF ORGANOELEMENT COMPOUNDS
     OF RUSSIAN ACADEMY OF SCIENCES, OSAKA PREFECTURE UNIVERSITY,
     PENNSYLVANIA STATE UNIVERSITY, TOKYO INSTITUTE OF TECHNOLOGY,
     UNIVERSITY OF AARHUS, UNIVERSITY OF ALBERTA,
     UNIVERSITY OF CALIFORNIA AT SANTA BARBARA,
     UNIVERSITY OF COPENHAGEN, UNIVERSITY OF IOWA,
     UNIVERSITY OF MEMPHIS, UNIVERSITY OF MINNESOTA,
     UNIVERSITY OF NEBRASKA, UNIVERSITY OF NEW ENGLAND,
     UNIVERSITY OF NOTRE DAME, UNIVERSITY OF PISA,
     UNIVERSITY OF SILESIA, UNIVERSITY OF TOKYO,
     UNIVERSITY OF ZURICH, WASEDA UNIVERSITY,
     YALE UNIVERSITY

  GAMESS SOFTWARE MANAGEMENT TEAM FOR THIS RELEASE:
     MARK S. GORDON (TEAM LEAD),
     BRETT BODE (SENIOR ADVISOR),
     GIUSEPPE BARCA,
     COLLEEN BERTONI,
     KRISTOPHER KEIPERT (ADVISOR),
     SAROM S. LEANG (DEVELOPMENT LEAD),
     BUU PHAM,
     JACKSON HAYES (WEBSITE ADMINISTRATOR),
     PENG XU


 PARALLEL VERSION RUNNING ON        2 PROCESSORS IN        2 NODES.

 EXECUTION OF GAMESS BEGUN 21:11:26 27-MAY-2023    

            ECHO OF THE FIRST FEW INPUT CARDS -
 INPUT CARD>! (Energy/Geometry) PM3                                                         
 INPUT CARD> $CONTRL                                                                        
 INPUT CARD>COORD=UNIQUE                                                                    
 INPUT CARD>ICHARG=0                                                                        
 INPUT CARD>MAXIT=200                                                                       
 INPUT CARD>MULT=1                                                                          
 INPUT CARD>RUNTYP=OPTIMIZE                                                                 
 INPUT CARD>SCFTYP=RHF                                                                      
 INPUT CARD>UNITS=ANGS                                                                      
 INPUT CARD>! DFTTYP=PBE                                                                    
 INPUT CARD> $END                                                                           
 INPUT CARD> $DFT                                                                           
 INPUT CARD>METHOD=GRID                                                                     
 INPUT CARD> $END                                                                           
 INPUT CARD> $BASIS                                                                         
 INPUT CARD>! EXTFIL=.T.                                                                    
 INPUT CARD>! GBASIS=GEGSSBAS                                                               
 INPUT CARD>! NGAUSS=6                                                                      
 INPUT CARD>GBASIS=PM3                                                                      
 INPUT CARD>! NDFUNC=1                                                                      
 INPUT CARD>! NPFUNC=1                                                                      
 INPUT CARD> $END                                                                           
 INPUT CARD> $SCF                                                                           
 INPUT CARD>DAMP=.F.                                                                        
 INPUT CARD>DEM=.F.                                                                         
 INPUT CARD>DIIS=.F.                                                                        
 INPUT CARD>DIRSCF=.T.                                                                      
 INPUT CARD>EXTRAP=.T.                                                                      
 INPUT CARD>RSTRCT=.F.                                                                      
 INPUT CARD>SHIFT=.F.                                                                       
 INPUT CARD>SOSCF=.T.                                                                       
 INPUT CARD> $END                                                                           
 INPUT CARD> $STATPT                                                                        
 INPUT CARD>METHOD=QA                                                                       
 INPUT CARD>NSTEP=100                                                                       
 INPUT CARD>OPTTOL=0.001                                                                    
 INPUT CARD> $END                                                                           
 INPUT CARD> $GUESS                                                                         
 INPUT CARD>GUESS=HUCKEL                                                                    
 INPUT CARD> $END                                                                           
 INPUT CARD> $SYSTEM                                                                        
 INPUT CARD>MWORDS=10                                                                       
 INPUT CARD> $END                                                                           
 INPUT CARD> $DATA                                                                          
 INPUT CARD>C76 FULLERENE                                                                   
 INPUT CARD>C1                                                                              
 INPUT CARD>C	6.0	0.1625	2.3936	2.6789                                                      
 INPUT CARD>C	6.0	1.4856	1.9971	2.6538                                                      
 INPUT CARD>C	6.0	2.2793	2.6194	1.6704                                                      
 INPUT CARD>C	6.0	3.3837	1.9934	1.1309                                                      
     10000000 WORDS OF MEMORY AVAILABLE

     BASIS OPTIONS
     -------------
     GBASIS=PM3          IGAUSS=       0      POLAR=NONE    
     NDFUNC=       0     NFFUNC=       0     DIFFSP=       F
     NPFUNC=       0      DIFFS=       F     BASNAM=        


     RUN TITLE
     ---------
 C76 FULLERENE                                                                   

 THE POINT GROUP OF THE MOLECULE IS C1      
 THE ORDER OF THE PRINCIPAL AXIS IS     0

 ATOM      ATOMIC                      COORDINATES (BOHR)
           CHARGE         X                   Y                   Z
 C           6.0     0.3070804730        4.5232481242        5.0623869485
 C           6.0     2.8073769274        3.7739717701        5.0149548262
 C           6.0     4.3072524438        4.9499482522        3.1565982899
 C           6.0     6.3942658247        3.7669797839        2.1370911195
 C           6.0     7.0753230706        1.4291997645        2.9653580199
 C           6.0     1.3131705889       -0.4280229362        6.4243124679
 C           6.0     3.3854441070        1.2587464804        5.7997580289
 C           6.0     5.6098405672        0.1940748589        4.7519049687
 C           6.0     1.7043438683       -3.0012628137        5.8237575490
 C           6.0     3.8935914251       -3.8981267675        4.7413225032
 C           6.0     5.8660874111       -2.3379689920        4.2310964865
 C           6.0    -1.2672502474        0.3870158823        6.4303595910
 C           6.0    -3.3355553409       -1.3090131917        5.8126081656
 C           6.0    -1.6552109926        2.9568542530        5.8383084391
 C           6.0    -5.5796049513       -0.2528453372        4.7647551054
 C           6.0     7.2909408058        2.5823105622       -2.0771868057
 C           6.0     8.0477760639        0.2522784194       -1.2534552477
 C           6.0     6.5707662319        4.4166675785       -0.3751106086
 C           6.0     8.0572246938       -0.3424183490        1.2935174386
 C           6.0     7.3281684078       -2.6822770670        2.0924935862
 C           6.0     7.0583155367       -1.4983637357       -2.9477835682
 C           6.0     6.3657309622       -3.8342540291       -2.1095011201
 C           6.0     6.5713331497       -4.5090751793        0.3994880738
 C           6.0     3.3077763689        5.7763254267       -3.0942373323
 C           6.0     3.8894340279        3.8259392347       -4.7137325038
 C           6.0     4.6150888072        6.0174544627       -0.8705967625
 C           6.0     5.8496467950        2.2519864596       -4.2216478566
 C           6.0     5.6015257728       -0.2728764326       -4.7519049687
 C           6.0     1.6867694166        2.9746176773       -5.8024036453
 C           6.0     1.3025881233        0.4038344436       -6.4097615778
 C           6.0     3.3599328062       -1.3105249725       -5.7918211798
 C           6.0     2.7678816542       -3.8104434816       -4.9864199638
 C           6.0     0.2639947205       -4.5332636719       -5.0208129768
 C           6.0     4.2601982667       -4.9896324980       -3.1220163043
 C           6.0    -3.1605667145        6.4732563709       -1.2016767556
 C           6.0    -0.5996100559        7.0575596463       -1.1430952500
 C           6.0     0.7785671069        6.2249463762       -3.2367226718
 C           6.0    -0.2577586247        4.5595308632       -5.0240255110
 C           6.0    -2.7529528189        3.8215928650       -4.9771603065
 C           6.0    -4.2488599108        4.9760264709       -3.1034969896
 C           6.0    -7.0416859480        1.5017652424       -2.9228391852
 C           6.0    -6.3453219216        3.8323643031       -2.0824780385
 C           6.0    -1.6899819508       -2.9593108968       -5.8042933713
 C           6.0    -1.2853916168       -0.3885276631       -6.4052262354
 C           6.0    -3.3519959570        1.3135485341       -5.7734908377
 C           6.0    -5.5896204991        0.2628608849       -4.7248818871
 C           6.0     0.6891830677        7.0705987557        1.2400381931
 C           6.0     3.2399352059        6.4908308226        1.2865254524
 C           6.0    -4.5572631920        6.0363517226        0.9590359388
 C           6.0    -3.2435256853        5.8018367275        3.1741727416
 C           6.0    -0.7188517657        6.2393082937        3.3049417799
 C           6.0    -6.5444990407        4.4629658652        0.4350149224
 C           6.0    -3.8535292342        3.8442695768        4.7711801738
 C           6.0    -5.8196001518        2.2920486505        4.2515055272
 C           6.0    -7.2903738880        2.6238845340        2.1198946130
 C           6.0    -7.2663743680       -2.5770193295       -2.0658484498
 C           6.0    -8.0300126396       -0.2522784194       -1.2311564810
 C           6.0    -8.0441855845        0.2902619117        1.3305560680
 C           6.0    -6.5333496574       -4.3921011407       -0.3386388970
 C           6.0    -3.2741392463       -5.7589399476       -3.1050087704
 C           6.0    -3.8924575895       -3.8304745771       -4.7318738733
 C           6.0    -5.8462452882       -2.2718285824       -4.2284508701
 C           6.0    -4.5650110685       -5.9826835045       -0.8670062832
 C           6.0     3.2030855492       -6.5085942469       -1.2254873030
 C           6.0     0.6423178632       -7.0741892350       -1.1625594276
 C           6.0    -0.7485204637       -6.2289148007       -3.2393682882
 C           6.0     0.7659059428       -6.2867404160        3.2917136980
 C           6.0     3.3081543141       -5.8636307673        3.1513070571
 C           6.0     4.6082857937       -6.0975788446        0.9310679942
 C           6.0    -3.1976053438       -6.4912087678        1.2895490140
 C           6.0    -0.6527113562       -7.0900629333        1.2169835361
 C           6.0    -7.0838268376       -1.4851356538        2.9993730877
 C           6.0    -6.3681876060       -3.8121442350        2.1909483102
 C           6.0    -4.2781506636       -4.9898214706        3.1943928096
 C           6.0    -2.7510630929       -3.8257502621        5.0397102367
 C           6.0    -0.2581365699       -4.5822075750        5.0654105101

          INTERNUCLEAR DISTANCES (ANGS.)
          ------------------------------

                1 C          2 C          3 C          4 C          5 C     

   1 C       0.0000000    1.3814615 *  2.3556104 *  3.5961915    4.0914599  
   2 C       1.3814615 *  0.0000000    1.4086492 *  2.4335204 *  2.7958476 *
   3 C       2.3556104 *  1.4086492 *  0.0000000    1.3793606 *  2.3721345 *
   4 C       3.5961915    2.4335204 *  1.3793606 *  0.0000000    1.3610332 *
   5 C       4.0914599    2.7958476 *  2.3721345 *  1.3610332 *  0.0000000  
   6 C       2.7690761 *  2.4750396 *  3.6877639    4.1598799    3.6896993  
   7 C       2.4062737 *  1.4274487 *  2.4514672 *  2.8378593 *  2.4638350 *
   8 C       3.6262121    2.4098583 *  2.7425512 *  2.3794285 *  1.3864972 *
   9 C       4.0698614    3.6576312    4.6468461    4.7742225    3.9828055  
  10 C       4.8466887    4.1029441    4.7617396    4.4836415    3.4154640  
  11 C       4.6935935    3.6404150    3.9846116    3.4267743    2.1982143 *
  12 C       2.4513124 *  2.9021610 *  4.1872918    4.9797558    4.8120492  
  13 C       3.6603959    4.2403117    5.4131883    6.1244020    5.8924554  
  14 C       1.3906625 *  2.4399767 *  3.6168389    4.7078753    4.9304384  
  15 C       4.0145243    4.9250263    5.9730301    6.8269442    6.8223716  
  16 C       5.3839737    4.4846289    3.4254004    2.3646353 *  2.7396572 *
  17 C       5.7495397    4.7081038    3.9425726    2.7283707 *  2.3741839 *
  18 C       4.3896680    3.4953334    2.2376659 *  1.3763090 *  2.3864822 *
  19 C       5.2370858    4.0423969    3.5711626    2.3880030 *  1.3898146 *
  20 C       5.5509542    4.4482844    4.3800124    3.4484771    2.2282111 *
  21 C       6.3941128    5.5316921    4.9191445    3.8893900    3.4916140  
  22 C       6.6514668    5.8282780    5.5281004    4.6075848    3.8872621  
  23 C       6.3184373    5.3986135    5.3496874    4.4759670    3.4335736  
  24 C       4.6466734    4.4280096    3.3782403    3.3855222    4.4214210  
  25 C       5.5220352    5.1800184    4.2128650    3.8601456    4.5786121  
  26 C       3.9597130    3.4676559    2.2107093 *  2.1995126 *  3.4220786  
  27 C       5.8466776    5.2087461    4.2366082    3.4710710    3.8826003  
  28 C       6.4236601    5.7865913    5.0618083    4.2468623    4.2540483  
  29 C       5.8532236    5.7704583    5.0489327    4.9023620    5.5069652  
  30 C       6.4717922    6.3533533    5.8260084    5.5572334    5.8513871  
  31 C       6.7179807    6.3267966    5.8008339    5.2347342    5.2385448  
  32 C       7.0299854    6.6422267    6.3814229    5.8284596    5.5308184  
  33 C       7.1721223    7.0242293    6.9632427    6.6455447    6.3880285  
  34 C       6.9623820    6.3748125    6.2213441    5.5220023    4.9125910  
  35 C       3.9268234    4.7787078    4.6460241    5.5441547    6.4285807  
  36 C       3.5793993    4.1096019    3.6281146    4.4432565    5.4856674  
  37 C       4.4900088    4.6799596    3.9227633    4.3138673    5.3211693  
  38 C       5.3458971    5.5700345    4.9617065    5.1891532    5.9729863  
  39 C       5.5663972    6.0512037    5.7307163    6.1322297    6.8056833  
  40 C       4.9540505    5.7274649    5.6101906    6.3103512    7.0531229  
  41 C       5.9611192    6.8010196    7.0531194    7.6914578    8.0942686  
  42 C       5.1789362    6.1290711    6.3097426    7.1017506    7.6934722  
  43 C       7.0613284    7.1511304    7.0763639    6.9735771    6.9601673  
  44 C       6.6551831    6.7870503    6.5070618    6.4641241    6.7147887  
  45 C       6.2860212    6.7016098    6.5162754    6.7682215    7.1997251  
  46 C       6.4531991    7.0541905    7.1396702    7.5392263    7.8650219  
  47 C       2.4391195 *  2.8792539 *  2.4400057 *  3.5207818    4.6006445  
  48 C       2.7359103 *  2.4519595 *  1.4011368 *  2.2508782 *  3.4760456  
  49 C       3.4615155    4.6073918    4.8669692    5.9511587    6.7054973  
  50 C       2.2330368 *  3.5147146    4.0210603    5.2413452    5.9315600  
  51 C       1.4086469 *  2.4500574 *  2.7469437 *  4.0326197    4.8500364  
  52 C       4.3752543    5.5224443    5.9259507    6.9157028    7.5043590  
  53 C       2.2361409 *  3.5273559    4.4409215    5.5993280    5.9994178  
  54 C       3.4769803    4.6496491    5.5706154    6.6057070    6.8727419  
  55 C       4.4270083    5.5919952    6.2834147    7.2668258    7.6413512  
  56 C       6.6639103    7.3316038    7.8110224    8.2748859    8.3174665  
  57 C       6.0779748    6.9536711    7.4560241    8.1217820    8.3437220  
  58 C       5.3336336    6.3383736    7.0522697    7.8704677    8.0700710  
  59 C       6.5976757    7.1506491    7.7954333    8.1949565    8.0253688  
  60 C       7.2025452    7.3666919    7.6933984    7.6994983    7.4014869  
  61 C       7.1653872    7.4408429    7.6054216    7.6816539    7.6172812  
  62 C       6.9068508    7.4250457    7.6646082    7.9696526    8.0674009  
  63 C       6.8847888    7.1808766    7.7489492    7.9232924    7.5788900  
  64 C       6.8920284    6.3684205    6.5181246    5.9653555    5.1731233  
  65 C       6.9675363    6.7047355    7.0336147    6.7249985    6.0504860  
  66 C       7.2100753    7.1161256    7.3217215    7.0965731    6.6591837  
  67 C       5.8017150    5.5084046    6.2349244    6.1277007    5.2772262  
  68 C       5.8100173    5.2012321    5.7466728    5.3784139    4.3447842  
  69 C       6.4457640    5.7329442    5.9656717    5.3432160    4.3275249  
  70 C       6.4341380    6.5948393    7.3077987    7.4452955    6.9213930  
  71 C       6.4935314    6.3594699    6.9667791    6.8667118    6.1566121  
  72 C       5.1572989    6.0232528    6.9237684    7.6682737    7.6497881  
  73 C       5.8517321    6.4749146    7.3262247    7.8547845    7.6465541  
  74 C       5.6750958    6.0410449    6.9503679    7.3267629    6.9028258  
  75 C       4.7051723    4.9824966    6.0423333    6.4748418    5.9980625  
  76 C       4.8276746    4.7101428    5.6833818    5.8578378    5.1394764  

                6 C          7 C          8 C          9 C         10 C     

   1 C       2.7690761 *  2.4062737 *  3.6262121    4.0698614    4.8466887  
   2 C       2.4750396 *  1.4274487 *  2.4098583 *  3.6576312    4.1029441  
   3 C       3.6877639    2.4514672 *  2.7425512 *  4.6468461    4.7617396  
   4 C       4.1598799    2.8378593 *  2.3794285 *  4.7742225    4.4836415  
   5 C       3.6896993    2.4638350 *  1.3864972 *  3.9828055    3.4154640  
   6 C       0.0000000    1.4520663 *  2.4619727 *  1.4135320 *  2.4555562 *
   7 C       1.4520663 *  0.0000000    1.4179049 *  2.4235136 *  2.7987344 *
   8 C       2.4619727 *  1.4179049 *  0.0000000    2.7298549 *  2.3482438 *
   9 C       1.4135320 *  2.4235136 *  2.7298549 *  0.0000000    1.3767597 *
  10 C       2.4555562 *  2.7987344 *  2.3482438 *  1.3767597 *  0.0000000  
  11 C       2.8588867 *  2.4565826 *  1.3746544 *  2.3840382 *  1.3579521 *
  12 C       1.4319987 *  2.5270714 *  3.7474125    2.4063762 *  3.6604985  
  13 C       2.5246236 *  3.8073334    4.8327668    2.8133333 *  4.1028039  
  14 C       2.4024929 *  2.8147684 *  4.1530873    3.6195871    4.7029346  
  15 C       3.7528769    4.8421380    5.9259251    4.1577034    5.3713465  
  16 C       5.7256718    4.7049478    3.9304108    5.9119136    5.2925694  
  17 C       5.4164035    4.5057240    3.4299206    5.3158378    4.4406918  
  18 C       5.2210648    4.0386919    3.5514045    5.7271972    5.3570136  
  19 C       4.4844346    3.5377970    2.2599003 *  4.3621549    3.4239962  
  20 C       4.0998950    3.5427439    2.2636493 *  3.5754328    2.3837015 *
  21 C       5.8446784    5.2281835    4.2416002    5.4958988    4.5796521  
  22 C       5.5489666    5.2219136    4.2293711    4.8890651    3.8542612  
  23 C       4.7508734    4.5082849    3.4289551    3.9381520    2.7187088 *
  24 C       6.1044944    5.2789961    5.2392014    6.6757694    6.5953024  
  25 C       6.4548644    5.7331652    5.4417468    6.7441352    6.4607163  
  26 C       5.4395340    4.3845444    4.3157578    6.1399175    6.0412704  
  27 C       6.2858270    5.4863049    4.8735230    6.3872885    5.8445916  
  28 C       6.3351578    5.7627980    5.0352687    6.1365571    5.4528589  
  29 C       6.7188868    6.2711381    6.1374372    6.9174434    6.7617763  
  30 C       6.8057534    6.5699339    6.3320038    6.7231566    6.4717068  
  31 C       6.5712217    6.2828855    5.7604065    6.2729547    5.7465723  
  32 C       6.3448720    6.3151869    5.7713777    5.7640454    5.1822608  
  33 C       6.4582320    6.7014733    6.4035217    5.8455847    5.5216460  
  34 C       5.8119383    5.7824690    5.0394512    5.0345000    4.2054739  
  35 C       5.9352293    5.7741328    6.5196978    6.7517417    7.3448196  
  36 C       5.7229079    5.2308335    5.8068789    6.5887381    6.9972021  
  37 C       6.2137984    5.6281411    5.8815090    6.8603968    7.0169221  
  38 C       6.6602366    6.2908113    6.4606180    7.0737727    7.1805999  
  39 C       6.7888755    6.7017759    7.0551436    7.1601159    7.4503107  
  40 C       6.5008964    6.5105733    7.1344472    7.0754314    7.6060151  
  41 C       6.7123575    7.1950166    7.8609610    6.9657347    7.6223294  
  42 C       6.4630914    6.7652152    7.5372351    6.9804104    7.6896591  
  43 C       6.7966868    7.0641886    6.9936449    6.4101426    6.3339595  
  44 C       6.9269918    6.9701274    6.9474590    6.8038479    6.7640507  
  45 C       6.9719631    7.0865546    7.3392076    7.0735845    7.2984535  
  46 C       6.9487719    7.3384430    7.7636299    7.0029609    7.4246067  
  47 C       4.8354000    4.1613153    4.8451562    5.8803816    6.3245020  
  48 C       4.6729622    3.6572675    4.0048071    5.6263353    5.8039269  
  49 C       5.4512803    5.5335016    6.5217324    6.3622802    7.1862290  
  50 C       4.4317778    4.4738676    5.6082385    5.5246783    6.4264800  
  51 C       4.0409499    3.6614840    4.6942197    5.2280051    5.9424841  
  52 C       5.8338385    6.2085654    7.1895491    6.5412102    7.4350041  
  53 C       3.6540107    4.1039610    5.3674243    4.6992366    5.7959640  
  54 C       4.2000908    4.9696939    6.1549481    4.9386969    6.1005733  
  55 C       5.3408413    6.0190996    7.0847919    5.9462626    6.9901409  
  56 C       6.4877564    7.2950131    7.8482113    6.3258188    6.9527474  
  57 C       6.3925874    7.1395721    7.8853066    6.5259898    7.3159601  
  58 C       5.6506220    6.5144312    7.4489534    5.9413391    6.9337658  
  59 C       5.8693202    6.8588081    7.3782513    5.4934908    6.1432697  
  60 C       6.2673456    6.9580841    7.0222155    5.6031087    5.7093272  
  61 C       6.7588953    7.2900441    7.4166552    6.3376158    6.4890291  
  62 C       6.8617421    7.4509589    7.8126596    6.6640702    7.0594327  
  63 C       5.7622179    6.6955832    6.9653098    5.1021030    5.4827126  
  64 C       5.2669637    5.5429620    4.9201380    4.2413302    3.4657740  
  65 C       5.3491993    5.9267007    5.6123940    4.3161292    3.9427780  
  66 C       6.0633563    6.5852391    6.3840799    5.2539208    5.0389568  
  67 C       3.5275625    4.4301536    4.3507519    2.2504830 *  2.2193455 *
  68 C       3.5196596    4.0213475    3.5322520    2.2393234 *  1.3732218 *
  69 C       4.5267822    4.7127982    3.9311428    3.4277643    2.3586361 *
  70 C       4.8348130    5.8864953    6.1314275    3.9870574    4.3932513  
  71 C       4.5939091    5.4741370    5.4166116    3.4900177    3.4812580  
  72 C       4.8313988    5.9158296    6.8388929    4.9502187    6.0186934  
  73 C       4.9747422    6.1227151    6.8196444    4.7040433    5.5956812  
  74 C       4.1836895    5.4111631    5.9651914    3.6146395    4.4388528  
  75 C       2.8974409 *  4.2362779    4.9115670    2.4333617 *  3.5199520  
  76 C       2.4578486 *  3.6636379    4.0072492    1.3926319 *  2.2332186 *

               11 C         12 C         13 C         14 C         15 C     

   1 C       4.6935935    2.4513124 *  3.6603959    1.3906625 *  4.0145243  
   2 C       3.6404150    2.9021610 *  4.2403117    2.4399767 *  4.9250263  
   3 C       3.9846116    4.1872918    5.4131883    3.6168389    5.9730301  
   4 C       3.4267743    4.9797558    6.1244020    4.7078753    6.8269442  
   5 C       2.1982143 *  4.8120492    5.8924554    4.9304384    6.8223716  
   6 C       2.8588867 *  1.4319987 *  2.5246236 *  2.4024929 *  3.7528769  
   7 C       2.4565826 *  2.5270714 *  3.8073334    2.8147684 *  4.8421380  
   8 C       1.3746544 *  3.7474125    4.8327668    4.1530873    5.9259251  
   9 C       2.3840382 *  2.4063762 *  2.8133333 *  3.6195871    4.1577034  
  10 C       1.3579521 *  3.6604985    4.1028039    4.7029346    5.3713465  
  11 C       0.0000000    4.2051052    4.9706101    4.9411729    6.1629593  
  12 C       4.2051052    0.0000000    1.4526872 *  1.4105435 *  2.4696234 *
  13 C       4.9706101    1.4526872 *  0.0000000    2.4262556 *  1.4247792 *
  14 C       4.9411729    1.4105435 *  2.4262556 *  0.0000000    2.7423207 *
  15 C       6.1629593    2.4696234 *  1.4247792 *  2.7423207 *  0.0000000  
  16 C       4.3001568    6.4905763    7.3002238    6.3242544    7.8579031  
  17 C       3.4110166    6.3903248    7.1379542    6.5188924    7.8877507  
  18 C       4.3424413    5.8923600    6.8835057    5.5096560    7.4057234  
  19 C       2.2081772 *  5.6467218    6.5059093    5.9369757    7.4465720  
  20 C       1.3829510 *  5.3475413    6.0205422    5.9525275    7.0928257  
  21 C       3.8764776    6.7107369    7.1939476    6.9596350    7.8623631  
  22 C       3.4575848    6.4596644    6.7612953    6.9727479    7.5353974  
  23 C       2.3601719 *  5.8398374    6.2094098    6.5454947    7.1940152  
  24 C       5.9411134    6.2767978    6.9736603    5.6095543    7.0422380  
  25 C       5.8428187    6.7479619    7.2821415    6.3245862    7.4111441  
  26 C       5.2226704    5.7873635    6.7260718    5.1221882    7.0004696  
  27 C       5.0899273    6.8506200    7.4411984    6.6521274    7.8070669  
  28 C       4.8796029    6.9533686    7.3430649    7.0052357    7.7698089  
  29 C       6.4019819    6.7986903    7.0696524    6.4088439    6.9979876  
  30 C       6.2963392    6.9294556    6.9769676    6.8032050    6.9535105  
  31 C       5.4941579    6.9737887    7.0896391    7.0724318    7.3415658  
  32 C       5.2045240    6.7818108    6.6963007    7.1494728    7.0486420  
  33 C       5.8401750    6.6449834    6.2772906    7.0542669    6.4426538  
  34 C       4.2227704    6.4963684    6.5041448    7.0685511    7.1283936  
  35 C       7.2679216    5.2619207    5.5448720    4.2397822    4.9270494  
  36 C       6.6718977    5.3522588    5.9368581    4.3208246    5.6288409  
  37 C       6.5876660    6.0733155    6.6004535    5.2641805    6.4030837  
  38 C       6.9145118    6.4731139    6.7217025    5.8571996    6.4225037  
  39 C       7.4277346    6.3531060    6.3298458    5.7708756    5.7846583  
  40 C       7.6612540    5.8171826    5.7928060    5.0413669    5.0486220  
  41 C       8.0694406    5.8466088    5.2370884    5.4965472    4.2438381  
  42 C       7.9737856    5.5532266    5.2339039    4.8931735    4.2387019  
  43 C       6.6556384    6.7158272    6.2698861    6.9108279    6.1293006  
  44 C       6.8604587    6.8046939    6.5738628    6.7193528    6.3330637  
  45 C       7.4536716    6.5698713    6.2862112    6.2705476    5.7597840  
  46 C       7.8169190    6.3310858    5.7626964    6.1329376    5.0291126  
  47 C       5.8990309    4.5961519    5.4821540    3.4926968    5.4315905  
  48 C       5.1173076    4.8508645    5.9059611    4.0011601    6.1566660  
  49 C       7.2842525    4.5112031    4.7035529    3.4177031    3.9274322  
  50 C       6.4888131    3.5033253    4.0138713    2.2272195 *  3.5358543  
  51 C       5.7431915    3.5228385    4.4309767    2.2494216 *  4.3606914  
  52 C       7.7535864    4.7451263    4.5067629    3.9376296    3.4260517  
  53 C       6.1023731    2.4476561 *  2.7955985 *  1.3757460 *  2.3526514 *
  54 C       6.6515028    2.8546376 *  2.4579794 *  2.3843559 *  1.3796726 *
  55 C       7.5241792    4.0942628    3.5397333    3.5770398    2.2573980 *
  56 C       7.7080295    5.7229619    4.7072765    5.9065428    3.9210613  
  57 C       7.9779136    5.4183844    4.5141406    5.3158999    3.4276414  
  58 C       7.6468663    4.4884779    3.5426301    4.3717069    2.2552418 *
  59 C       7.0769020    5.1954078    4.0150976    5.6983830    3.5136611  
  60 C       6.4608452    6.0964257    5.2740023    6.6636196    5.2269597  
  61 C       7.0559712    6.4653766    5.7447792    6.7519753    5.4438905  
  62 C       7.6455959    6.2980294    5.5007318    6.3994036    4.8794947  
  63 C       6.4395112    5.4146973    4.3628090    6.1106459    4.2852636  
  64 C       3.8979931    5.9434246    5.7805017    6.7580508    6.5274191  
  65 C       4.6978029    5.7231553    5.2309296    6.5863464    5.8059237  
  66 C       5.6673955    6.2061292    5.6211592    6.8508460    5.8716925  
  67 C       3.4492895    4.0482525    3.6645157    5.2329983    4.6987617  
  68 C       2.3747773 *  4.4512928    4.4891558    5.5413709    5.6271324  
  69 C       2.7295965 *  5.4690949    5.5466361    6.3786201    6.5380954  
  70 C       5.5007111    4.6574867    3.6406566    5.6086819    3.9835540  
  71 C       4.5571352    4.8344811    4.1579310    5.8760647    4.8386744  
  72 C       6.8985058    3.7083654    2.4817708 *  4.0043265    1.3898130 *
  73 C       6.6096946    4.1541296    2.8289433 *  4.7724256    2.3615155 *
  74 C       5.5755458    3.6832935    2.4417896 *  4.6441072    2.7291782 *
  75 C       4.6472077    2.4754528 *  1.4271085 *  3.6602229    2.4158491 *
  76 C       3.4796696    2.7787892 *  2.4100879 *  4.0779843    3.6337102  

               16 C         17 C         18 C         19 C         20 C     

   1 C       5.3839737    5.7495397    4.3896680    5.2370858    5.5509542  
   2 C       4.4846289    4.7081038    3.4953334    4.0423969    4.4482844  
   3 C       3.4254004    3.9425726    2.2376659 *  3.5711626    4.3800124  
   4 C       2.3646353 *  2.7283707 *  1.3763090 *  2.3880030 *  3.4484771  
   5 C       2.7396572 *  2.3741839 *  2.3864822 *  1.3898146 *  2.2282111 *
   6 C       5.7256718    5.4164035    5.2210648    4.4844346    4.0998950  
   7 C       4.7049478    4.5057240    4.0386919    3.5377970    3.5427439  
   8 C       3.9304108    3.4299206    3.5514045    2.2599003 *  2.2636493 *
   9 C       5.9119136    5.3158378    5.7271972    4.3621549    3.5754328  
  10 C       5.2925694    4.4406918    5.3570136    3.4239962    2.3837015 *
  11 C       4.3001568    3.4110166    4.3424413    2.2081772 *  1.3829510 *
  12 C       6.4905763    6.3903248    5.8923600    5.6467218    5.3475413  
  13 C       7.3002238    7.1379542    6.8835057    6.5059093    6.0205422  
  14 C       6.3242544    6.5188924    5.5096560    5.9369757    5.9525275  
  15 C       7.8579031    7.8877507    7.4057234    7.4465720    7.0928257  
  16 C       0.0000000    1.3677346 *  1.3779536 *  2.3961200 *  3.5539090  
  17 C       1.3677346 *  0.0000000    2.3839529 *  1.3840614 *  2.3856931 *
  18 C       1.3779536 *  2.3839529 *  0.0000000    2.7822234 *  3.9972238  
  19 C       2.3961200 *  1.3840614 *  2.7822234 *  0.0000000    1.3640897 *
  20 C       3.5539090    2.3856931 *  3.9972238    1.3640897 *  0.0000000  
  21 C       2.2114263 *  1.3914976 *  3.4230834    2.3855662 *  2.7435105 *
  22 C       3.4306589    2.3819935 *  4.4629398    2.7310162 *  2.3612276 *
  23 C       3.9930800    2.7791930 *  4.7410527    2.3882369 *  1.3775144 *
  24 C       2.7548605 *  3.9731018    2.3600013 *  4.7108272    5.6652542  
  25 C       2.3705861 *  3.4309454    2.7170117 *  4.4536714    5.3051566  
  26 C       2.3910531 *  3.5564167    1.3628445 *  3.9944881    5.0708887  
  27 C       1.3784184 *  2.2225931 *  2.3666536 *  3.4303335    4.3121084  
  28 C       2.2550858 *  2.2760207 *  3.4330343    3.4531573    3.9469776  
  29 C       3.5670583    4.3818454    3.9383176    5.3427912    5.9436581  
  30 C       4.0776646    4.4935850    4.7411902    5.4359285    5.7512595  
  31 C       3.5263024    3.5504203    4.5042571    4.5275994    4.7269190  
  32 C       4.4207369    4.0411275    5.3812789    4.7165685    4.4958269  
  33 C       5.5165124    5.2300719    6.2938551    5.7524363    5.3946975  
  34 C       4.3512206    3.5622276    5.3277059    3.9426705    3.4264970  
  35 C       5.9196934    6.7835940    5.2814861    7.0703756    7.5709142  
  36 C       4.8257128    5.8233863    4.0639437    6.1629852    6.8626583  
  37 C       3.9960532    5.0880196    3.5501549    5.7149235    6.4948063  
  38 C       4.4139893    5.3379148    4.3720921    6.1045912    6.7068893  
  39 C       5.5708434    6.3338279    5.5111902    6.9706992    7.3688637  
  40 C       6.2601957    7.0391258    5.9121506    7.4660761    7.8431766  
  41 C       7.6191766    8.0608812    7.4890534    8.3528878    8.3528326  
  42 C       7.2462574    7.8608308    6.9012879    8.1338434    8.3138997  
  43 C       5.9224809    5.9364246    6.5267325    6.5291784    6.3448998  
  44 C       5.3210945    5.6515386    5.8250713    6.4062640    6.5169622  
  45 C       5.9996782    6.5136500    6.1991272    7.1557434    7.3307046  
  46 C       7.0660322    7.4467386    7.1790774    7.8991803    7.8849135  
  47 C       4.5746116    5.4701647    3.5199269    5.5309458    6.2595516  
  48 C       3.4701174    4.3792853    2.2549175 *  4.4242390    5.3315532  
  49 C       6.7255282    7.4318350    5.9924823    7.4823098    7.8232856  
  50 C       6.4576346    7.0580221    5.5711190    6.8792166    7.1958559  
  51 C       5.4609892    6.1137099    4.4275200    5.9017967    6.3901138  
  52 C       7.5073714    8.0864675    6.9535709    8.1472518    8.3040816  
  53 C       6.9540391    7.3103055    6.1593569    6.9297686    6.9963864  
  54 C       7.7053529    7.9688081    7.0886203    7.6366049    7.5260292  
  55 C       8.0294162    8.4048083    7.5130186    8.2834519    8.2296485  
  56 C       8.1729064    8.2522492    8.2530737    8.3852718    8.0306648  
  57 C       8.2572387    8.5121967    8.1244584    8.6173279    8.4141723  
  58 C       8.4009667    8.6246117    8.0867796    8.5270977    8.2951940  
  59 C       8.2452536    8.1124163    8.3555326    8.0592970    7.5019267  
  60 C       7.1439672    6.8537905    7.6303891    7.0419465    6.4570210  
  61 C       6.9650577    6.9267149    7.4174681    7.3184809    6.9761699  
  62 C       7.4982056    7.6367729    7.7369693    7.9820075    7.7355503  
  63 C       7.7662464    7.4481861    8.0670290    7.4047251    6.7165715  
  64 C       5.2939021    4.4014445    6.0665448    4.3614536    3.4565447  
  65 C       6.2229246    5.5127521    6.8549672    5.4566847    4.5701084  
  66 C       6.3417714    5.8765973    7.0024439    6.0967797    5.4543851  
  67 C       6.4823940    5.7102850    6.7291904    5.0892185    4.0124609  
  68 C       5.6632761    4.7114696    6.0048164    3.9772463    2.7701108 *
  69 C       5.0642765    3.9924985    5.7020367    3.5556782    2.3907428 *
  70 C       7.5521077    7.0680352    7.7983913    6.7866614    5.9386937  
  71 C       6.8488698    6.1646657    7.2386775    5.8305524    4.8467996  
  72 C       8.3494297    8.3682077    8.0717544    8.0856342    7.6677982  
  73 C       8.2943840    8.1328786    8.2272092    7.8656622    7.2726064  
  74 C       7.8305827    7.4685534    7.8297204    7.0476630    6.2891015  
  75 C       7.3430911    6.9572054    7.1811174    6.3277441    5.5898885  
  76 C       6.6797092    6.0864242    6.6350669    5.3273255    4.4274143  

               21 C         22 C         23 C         24 C         25 C     

   1 C       6.3941128    6.6514668    6.3184373    4.6466734    5.5220352  
   2 C       5.5316921    5.8282780    5.3986135    4.4280096    5.1800184  
   3 C       4.9191445    5.5281004    5.3496874    3.3782403    4.2128650  
   4 C       3.8893900    4.6075848    4.4759670    3.3855222    3.8601456  
   5 C       3.4916140    3.8872621    3.4335736    4.4214210    4.5786121  
   6 C       5.8446784    5.5489666    4.7508734    6.1044944    6.4548644  
   7 C       5.2281835    5.2219136    4.5082849    5.2789961    5.7331652  
   8 C       4.2416002    4.2293711    3.4289551    5.2392014    5.4417468  
   9 C       5.4958988    4.8890651    3.9381520    6.6757694    6.7441352  
  10 C       4.5796521    3.8542612    2.7187088 *  6.5953024    6.4607163  
  11 C       3.8764776    3.4575848    2.3601719 *  5.9411134    5.8428187  
  12 C       6.7107369    6.4596644    5.8398374    6.2767978    6.7479619  
  13 C       7.1939476    6.7612953    6.2094098    6.9736603    7.2821415  
  14 C       6.9596350    6.9727479    6.5454947    5.6095543    6.3245862  
  15 C       7.8623631    7.5353974    7.1940152    7.0422380    7.4111441  
  16 C       2.2114263 *  3.4306589    3.9930800    2.7548605 *  2.3705861 *
  17 C       1.3914976 *  2.3819935 *  2.7791930 *  3.9731018    3.4309454  
  18 C       3.4230834    4.4629398    4.7410527    2.3600013 *  2.7170117 *
  19 C       2.3855662 *  2.7310162 *  2.3882369 *  4.7108272    4.4536714  
  20 C       2.7435105 *  2.3612276 *  1.3775144 *  5.6652542    5.3051566  
  21 C       0.0000000    1.3634685 *  2.3962886 *  4.3317965    3.4093387  
  22 C       1.3634685 *  0.0000000    1.3791828 *  5.3623186    4.4774972  
  23 C       2.3962886 *  1.3791828 *  0.0000000    6.0020548    5.3656087  
  24 C       4.3317965    5.3623186    6.0020548    0.0000000    1.3763794 *
  25 C       3.4093387    4.4774972    5.3656087    1.3763794 *  0.0000000  
  26 C       4.3241127    5.3354030    5.7054985    1.3709456 *  2.3724030 *
  27 C       2.1913777 *  3.4200505    4.3504576    2.3755948 *  1.3555522 *
  28 C       1.3879089 *  2.3812810 *  3.5664645    3.5340956    2.3507031 *
  29 C       3.9955485    4.7887162    5.7563220    2.2333157 *  1.3760323 *
  30 C       3.6940987    4.1697371    5.2455917    3.5052607    2.4410556 *
  31 C       2.4708593 *  2.8479134 *  4.0604183    4.0127943    2.7914243 *
  32 C       2.7956176 *  2.4377645 *  3.5086621    5.1788580    4.0868993  
  33 C       4.0877312    3.5966748    4.4008579    5.7790402    4.8243550  
  34 C       2.3694366 *  1.3792510 *  2.2434415 *  5.7193689    4.7444904  
  35 C       6.9203188    7.4427847    7.8111511    3.5854233    4.3971201  
  36 C       6.1508644    6.8605850    7.2477780    2.4085522 *  3.4839134  
  37 C       5.2697193    6.1182260    6.7352724    1.3613811 *  2.2209240 *
  38 C       5.1451109    5.8645803    6.6577693    2.2399712 *  2.2347103 *
  39 C       6.0028691    6.4807656    7.2024637    3.5141042    3.5177639  
  40 C       6.8954495    7.3187071    7.8367316    4.0211662    4.4320731  
  41 C       7.6284427    7.6482764    8.0685623    5.9261382    5.9892595  
  42 C       7.6469850    7.8551837    8.2419207    5.2381852    5.5921235  
  43 C       4.9309190    4.7126948    5.5282689    5.5154724    4.6843045  
  44 C       4.8153122    4.9884875    5.9166459    4.4294776    3.6433269  
  45 C       5.8989868    6.1338676    6.9093828    4.4729517    4.0946662  
  46 C       6.8226993    6.8294008    7.4258358    5.6058073    5.3587689  
  47 C       6.0689691    6.7427736    6.8873402    2.7658368 *  3.9676582  
  48 C       5.1939396    5.9848747    6.1000844    2.3491061 *  3.4912303  
  49 C       7.6127411    7.9580338    8.1184272    4.6842047    5.5098742  
  50 C       7.4254564    7.7250684    7.6748077    4.7981285    5.7239842  
  51 C       6.6821588    7.1190403    7.0425561    4.0084113    5.0579985  
  52 C       8.0604889    8.2319378    8.4091549    5.5814496    6.1662744  
  53 C       7.6171106    7.6819475    7.4380529    5.7210383    6.4792862  
  54 C       8.0608426    7.9636567    7.7525560    6.4682936    7.0401193  
  55 C       8.3428814    8.3012469    8.2995819    6.4690884    6.9628848  
  56 C       7.6160731    7.2444509    7.5078461    7.1517011    6.9493935  
  57 C       8.0629177    7.8639278    8.0944855    6.8662781    6.9165188  
  58 C       8.3601450    8.1378329    8.1554080    7.0708602    7.3219033  
  59 C       7.4821006    6.8962461    6.9459675    7.6289299    7.3954684  
  60 C       5.9148869    5.2284895    5.5696248    7.0279854    6.3891372  
  61 C       5.9995995    5.6029672    6.1776155    6.4119128    5.7769783  
  62 C       6.8745409    6.6107665    7.1118616    6.4779452    6.0844275  
  63 C       6.6840026    5.9315238    5.9821304    7.5806489    7.1484781  
  64 C       3.4672827    2.2411079 *  2.2440930 *  6.5759177    5.7833411  
  65 C       4.5962900    3.5161961    3.5170596    7.0197666    6.3051507  
  66 C       4.8329218    4.0169947    4.4204321    6.7061687    5.9112785  
  67 C       5.3301126    4.3167973    3.5588123    7.3469745    7.0225208  
  68 C       4.4374651    3.3943018    2.3698436 *  6.9902573    6.6112115  
  69 C       3.4376535    2.2109424 *  1.3655927 *  6.6702369    6.0533976  
  70 C       6.4391849    5.5518323    5.2958250    7.7054816    7.3460221  
  71 C       5.5012123    4.4565498    4.0824444    7.4802538    6.9996285  
  72 C       8.1185007    7.7141912    7.5278511    7.4432937    7.6339567  
  73 C       7.7055028    7.1124067    6.9224443    7.7320785    7.6909999  
  74 C       7.0686687    6.3227014    5.9341963    7.7231435    7.6129007  
  75 C       6.8064763    6.1308611    5.5223815    7.3908937    7.4419369  
  76 C       5.9694347    5.1825452    4.3770936    7.2285456    7.1689537  

               26 C         27 C         28 C         29 C         30 C     

   1 C       3.9597130    5.8466776    6.4236601    5.8532236    6.4717922  
   2 C       3.4676559    5.2087461    5.7865913    5.7704583    6.3533533  
   3 C       2.2107093 *  4.2366082    5.0618083    5.0489327    5.8260084  
   4 C       2.1995126 *  3.4710710    4.2468623    4.9023620    5.5572334  
   5 C       3.4220786    3.8826003    4.2540483    5.5069652    5.8513871  
   6 C       5.4395340    6.2858270    6.3351578    6.7188868    6.8057534  
   7 C       4.3845444    5.4863049    5.7627980    6.2711381    6.5699339  
   8 C       4.3157578    4.8735230    5.0352687    6.1374372    6.3320038  
   9 C       6.1399175    6.3872885    6.1365571    6.9174434    6.7231566  
  10 C       6.0412704    5.8445916    5.4528589    6.7617763    6.4717068  
  11 C       5.2226704    5.0899273    4.8796029    6.4019819    6.2963392  
  12 C       5.7873635    6.8506200    6.9533686    6.7986903    6.9294556  
  13 C       6.7260718    7.4411984    7.3430649    7.0696524    6.9769676  
  14 C       5.1221882    6.6521274    7.0052357    6.4088439    6.8032050  
  15 C       7.0004696    7.8070669    7.7698089    6.9979876    6.9535105  
  16 C       2.3910531 *  1.3784184 *  2.2550858 *  3.5670583    4.0776646  
  17 C       3.5564167    2.2225931 *  2.2760207 *  4.3818454    4.4935850  
  18 C       1.3628445 *  2.3666536 *  3.4330343    3.9383176    4.7411902  
  19 C       3.9944881    3.4303335    3.4531573    5.3427912    5.4359285  
  20 C       5.0708887    4.3121084    3.9469776    5.9436581    5.7512595  
  21 C       4.3241127    2.1913777 *  1.3879089 *  3.9955485    3.6940987  
  22 C       5.3354030    3.4200505    2.3812810 *  4.7887162    4.1697371  
  23 C       5.7054985    4.3504576    3.5664645    5.7563220    5.2455917  
  24 C       1.3709456 *  2.3755948 *  3.5340956    2.2333157 *  3.5052607  
  25 C       2.3724030 *  1.3555522 *  2.3507031 *  1.3760323 *  2.4410556 *
  26 C       0.0000000    2.7462426 *  3.9460402    3.4358493    4.5264839  
  27 C       2.7462426 *  0.0000000    1.3715463 *  2.3872014 *  2.8437677 *
  28 C       3.9460402    1.3715463 *  0.0000000    2.7484166 *  2.4643581 *
  29 C       3.4358493    2.3872014 *  2.7484166 *  0.0000000    1.4125569 *
  30 C       4.5264839    2.8437677 *  2.4643581 *  1.4125569 *  0.0000000  
  31 C       4.7180878    2.4454407 *  1.4182423 *  2.4343324 *  1.4543756 *
  32 C       5.7224532    3.6214909    2.4017254 *  3.6613440    2.4782860 *
  33 C       6.4262682    4.6699043    3.6167416    4.0648066    2.7691089 *
  34 C       5.9482630    3.9662384    2.7345454 *  4.6506309    3.6908439  
  35 C       4.1254853    5.5025094    6.1459488    3.9918288    4.8465755  
  36 C       2.8175475 *  4.5571943    5.4279474    3.4944576    4.6019619  
  37 C       2.3877861 *  3.4486095    4.3565916    2.2433737 *  3.5192522  
  38 C       3.4749323    3.4808832    4.0216574    1.3899354 *  2.4608028 *
  39 C       4.6124623    4.6446929    4.9248389    2.4313104 *  2.9071455 *
  40 C       4.8684308    5.5664440    5.9705249    3.6093391    4.1886945  
  41 C       6.7037285    6.8678196    6.8250663    4.9258165    4.8207725  
  42 C       5.9488062    6.6049907    6.8324552    4.7060512    4.9914271  
  43 C       6.3650498    4.9218716    4.1495911    3.6129269    2.4037007 *
  44 C       5.4606477    4.1885007    3.7484459    2.3964125 *  1.4322529 *
  45 C       5.5409569    4.9629692    4.8420711    2.8075904 *  2.5321877 *
  46 C       6.5264302    6.1500028    5.9288992    4.1485785    3.7553407  
  47 C       2.4236450 *  4.7236125    5.6491034    4.3433889    5.3794570  
  48 C       1.3767061 *  3.9287043    4.9581250    4.2673148    5.2927692  
  49 C       4.9494329    6.4694961    7.0127906    5.1327254    5.8055902  
  50 C       4.6784917    6.4807555    7.0593075    5.6222412    6.2982626  
  51 C       3.5865284    5.6918778    6.4217900    5.2755803    6.0916194  
  52 C       6.0023131    7.1033603    7.4246842    5.5215874    5.9141161  
  53 C       5.5062379    7.0513329    7.4280750    6.3336101    6.7651042  
  54 C       6.4593733    7.6313021    7.8146842    6.6493932    6.8579725  
  55 C       6.7394706    7.7233345    7.8812585    6.3385390    6.5138829  
  56 C       7.7856123    7.4836362    7.0622234    5.9149922    5.3229600  
  57 C       7.4713033    7.6293216    7.4502243    5.9335145    5.6586315  
  58 C       7.4443605    7.9853866    7.9114900    6.5407756    6.4222063  
  59 C       8.0763181    7.7151114    7.1722579    6.5175140    5.8272351  
  60 C       7.5935733    6.4521724    5.5899403    5.5034837    4.4225927  
  61 C       7.1833646    6.0835884    5.3651534    4.6910030    3.6560435  
  62 C       7.2831960    6.6360355    6.1557958    4.9287069    4.2009844  
  63 C       7.9952634    7.2466087    6.5037758    6.3429824    5.4466317  
  64 C       6.6731244    5.0957609    3.9977341    5.6296771    4.6816566  
  65 C       7.2414051    5.8796296    4.8423333    5.8830983    4.8468108  
  66 C       7.1849906    5.7098782    4.6761201    5.2172904    4.0388326  
  67 C       7.1690189    6.5925563    5.8985957    6.8858896    6.2427317  
  68 C       6.6735939    5.9560749    5.2646314    6.7126809    6.1420464  
  69 C       6.4815049    5.2334185    4.3382810    6.1752887    5.4759949  
  70 C       7.8876008    7.2686213    6.5368178    6.7717070    5.9652324  
  71 C       7.5565830    6.6754669    5.8261705    6.6103275    5.7519628  
  72 C       7.6342902    8.0841930    7.8929063    6.9860222    6.7443008  
  73 C       7.9662961    7.9758537    7.5582308    6.9970790    6.4937506  
  74 C       7.7912068    7.6687574    7.1586011    7.0987685    6.5343417  
  75 C       7.2185790    7.4213944    7.0653463    7.1681701    6.8058835  
  76 C       6.9267128    6.9049151    6.4656205    7.0798626    6.6721687  

               31 C         32 C         33 C         34 C         35 C     

   1 C       6.7179807    7.0299854    7.1721223    6.9623820    3.9268234  
   2 C       6.3267966    6.6422267    7.0242293    6.3748125    4.7787078  
   3 C       5.8008339    6.3814229    6.9632427    6.2213441    4.6460241  
   4 C       5.2347342    5.8284596    6.6455447    5.5220023    5.5441547  
   5 C       5.2385448    5.5308184    6.3880285    4.9125910    6.4285807  
   6 C       6.5712217    6.3448720    6.4582320    5.8119383    5.9352293  
   7 C       6.2828855    6.3151869    6.7014733    5.7824690    5.7741328  
   8 C       5.7604065    5.7713777    6.4035217    5.0394512    6.5196978  
   9 C       6.2729547    5.7640454    5.8455847    5.0345000    6.7517417  
  10 C       5.7465723    5.1822608    5.5216460    4.2054739    7.3448196  
  11 C       5.4941579    5.2045240    5.8401750    4.2227704    7.2679216  
  12 C       6.9737887    6.7818108    6.6449834    6.4963684    5.2619207  
  13 C       7.0896391    6.6963007    6.2772906    6.5041448    5.5448720  
  14 C       7.0724318    7.1494728    7.0542669    7.0685511    4.2397822  
  15 C       7.3415658    7.0486420    6.4426538    7.1283936    4.9270494  
  16 C       3.5263024    4.4207369    5.5165124    4.3512206    5.9196934  
  17 C       3.5504203    4.0411275    5.2300719    3.5622276    6.7835940  
  18 C       4.5042571    5.3812789    6.2938551    5.3277059    5.2814861  
  19 C       4.5275994    4.7165685    5.7524363    3.9426705    7.0703756  
  20 C       4.7269190    4.4958269    5.3946975    3.4264970    7.5709142  
  21 C       2.4708593 *  2.7956176 *  4.0877312    2.3694366 *  6.9203188  
  22 C       2.8479134 *  2.4377645 *  3.5966748    1.3792510 *  7.4427847  
  23 C       4.0604183    3.5086621    4.4008579    2.2434415 *  7.8111511  
  24 C       4.0127943    5.1788580    5.7790402    5.7193689    3.5854233  
  25 C       2.7914243 *  4.0868993    4.8243550    4.7444904    4.3971201  
  26 C       4.7180878    5.7224532    6.4262682    5.9482630    4.1254853  
  27 C       2.4454407 *  3.6214909    4.6699043    3.9662384    5.5025094  
  28 C       1.4182423 *  2.4017254 *  3.6167416    2.7345454 *  6.1459488  
  29 C       2.4343324 *  3.6613440    4.0648066    4.6506309    3.9918288  
  30 C       1.4543756 *  2.4782860 *  2.7691089 *  3.6908439    4.8465755  
  31 C       0.0000000    1.4247343 *  2.3997667 *  2.4522195 *  5.8967917  
  32 C       1.4247343 *  0.0000000    1.3792253 *  1.4093905 *  6.5929893  
  33 C       2.3997667 *  1.3792253 *  0.0000000    2.3536995 *  6.4258965  
  34 C       2.4522195 *  1.4093905 *  2.3536995 *  0.0000000    7.2971466  
  35 C       5.8967917    6.5929893    6.4258965    7.2971466    0.0000000  
  36 C       5.4818644    6.3550781    6.4838725    6.9535724    1.3903714 *
  37 C       4.4266335    5.4924383    5.7771724    6.2142105    2.3499191 *
  38 C       3.6713903    4.7097484    4.8196152    5.6801230    2.7343152 *
  39 C       4.2456269    4.9846047    4.7006760    6.0396615    2.4509388 *
  40 C       5.4131895    6.0331339    5.6616663    6.9344186    1.4043650 *
  41 C       5.9005923    6.0034347    5.1359109    6.8978108    3.4595895  
  42 C       6.1348171    6.4788212    5.8521504    7.3207484    2.2384127 *
  43 C       2.8111363 *  2.4402985 *  1.3909607 *  3.6170905    5.6082809  
  44 C       2.5270850 *  2.9057346 *  2.4534677 *  4.1903087    4.6638889  
  45 C       3.8136055    4.2442416    3.6596395    5.4148541    3.6494326  
  46 C       4.8415643    4.9218620    4.0076294    5.9676742    3.9910732  
  47 C       5.9593720    6.7246509    6.9809023    7.0447952    2.4330280 *
  48 C       5.5746894    6.3872578    6.9030640    6.5300819    3.6339447  
  49 C       6.7401616    7.2163475    6.9142205    7.7768343    1.3809728 *
  50 C       6.9919595    7.3919872    7.2223446    7.7122692    2.3431109 *
  51 C       6.6176268    7.1370593    7.2234630    7.3360428    2.7151648 *
  52 C       6.9037749    7.1890573    6.6317077    7.8265578    2.2557496 *
  53 C       7.2977157    7.4395711    7.1589722    7.5983100    3.4727411  
  54 C       7.4482666    7.4146121    6.8909141    7.6501177    3.8990760  
  55 C       7.3230151    7.3528753    6.6786060    7.8285866    3.4662446  
  56 C       5.9964279    5.5686287    4.4041145    6.2567925    5.2788432  
  57 C       6.5166283    6.3359350    5.3307586    7.0415809    4.3939302  
  58 C       7.1653158    6.9727164    6.0943244    7.4668494    4.3794447  
  59 C       6.1963548    5.5108951    4.3684078    5.9070241    6.0376433  
  60 C       4.4595004    3.5038713    2.2257537 *  4.0077401    6.5511673  
  61 C       4.1014071    3.5270890    2.2359535 *  4.4400805    5.7766387  
  62 C       4.9675610    4.6478827    3.4731512    5.5689679    5.0991038  
  63 C       5.5219235    4.5968270    3.4568775    4.8487059    6.6355305  
  64 C       3.6622709    2.4601925 *  2.7468674 *  1.4022253 *  7.6506858  
  65 C       4.1679325    2.8883562 *  2.4528694 *  2.4407584 *  7.4461227  
  66 C       3.6503628    2.4403207 *  1.4074488 *  2.7311317 *  6.9262673  
  67 C       5.6501239    4.6935203    4.5034413    3.9255002    7.4541761  
  68 C       5.3106040    4.4504428    4.6681811    3.3894142    7.7229355  
  69 C       4.4170140    3.4955648    3.9862481    2.2311083 *  7.9010535  
  70 C       5.7965225    4.7966152    3.9471406    4.6536160    6.9860403  
  71 C       5.2553380    4.1309250    3.6002600    3.6423162    7.4104257  
  72 C       7.2245332    6.8228189    5.9777112    7.0688219    5.1950221  
  73 C       6.7895531    6.1480828    5.1987553    6.3186657    5.9773189  
  74 C       6.5376328    5.7474399    4.9733973    5.6202617    6.5236326  
  75 C       6.7143544    6.0563006    5.5703359    5.7270130    6.3763584  
  76 C       6.2986279    5.5699947    5.3446096    4.9532603    6.8980800  

               36 C         37 C         38 C         39 C         40 C     

   1 C       3.5793993    4.4900088    5.3458971    5.5663972    4.9540505  
   2 C       4.1096019    4.6799596    5.5700345    6.0512037    5.7274649  
   3 C       3.6281146    3.9227633    4.9617065    5.7307163    5.6101906  
   4 C       4.4432565    4.3138673    5.1891532    6.1322297    6.3103512  
   5 C       5.4856674    5.3211693    5.9729863    6.8056833    7.0531229  
   6 C       5.7229079    6.2137984    6.6602366    6.7888755    6.5008964  
   7 C       5.2308335    5.6281411    6.2908113    6.7017759    6.5105733  
   8 C       5.8068789    5.8815090    6.4606180    7.0551436    7.1344472  
   9 C       6.5887381    6.8603968    7.0737727    7.1601159    7.0754314  
  10 C       6.9972021    7.0169221    7.1805999    7.4503107    7.6060151  
  11 C       6.6718977    6.5876660    6.9145118    7.4277346    7.6612540  
  12 C       5.3522588    6.0733155    6.4731139    6.3531060    5.8171826  
  13 C       5.9368581    6.6004535    6.7217025    6.3298458    5.7928060  
  14 C       4.3208246    5.2641805    5.8571996    5.7708756    5.0413669  
  15 C       5.6288409    6.4030837    6.4225037    5.7846583    5.0486220  
  16 C       4.8257128    3.9960532    4.4139893    5.5708434    6.2601957  
  17 C       5.8233863    5.0880196    5.3379148    6.3338279    7.0391258  
  18 C       4.0639437    3.5501549    4.3720921    5.5111902    5.9121506  
  19 C       6.1629852    5.7149235    6.1045912    6.9706992    7.4660761  
  20 C       6.8626583    6.4948063    6.7068893    7.3688637    7.8431766  
  21 C       6.1508644    5.2697193    5.1451109    6.0028691    6.8954495  
  22 C       6.8605850    6.1182260    5.8645803    6.4807656    7.3187071  
  23 C       7.2477780    6.7352724    6.6577693    7.2024637    7.8367316  
  24 C       2.4085522 *  1.3613811 *  2.2399712 *  3.5141042    4.0211662  
  25 C       3.4839134    2.2209240 *  2.2347103 *  3.5177639    4.4320731  
  26 C       2.8175475 *  2.3877861 *  3.4749323    4.6124623    4.8684308  
  27 C       4.5571943    3.4486095    3.4808832    4.6446929    5.5664440  
  28 C       5.4279474    4.3565916    4.0216574    4.9248389    5.9705249  
  29 C       3.4944576    2.2433737 *  1.3899354 *  2.4313104 *  3.6093391  
  30 C       4.6019619    3.5192522    2.4608028 *  2.9071455 *  4.1886945  
  31 C       5.4818644    4.4266335    3.6713903    4.2456269    5.4131895  
  32 C       6.3550781    5.4924383    4.7097484    4.9846047    6.0331339  
  33 C       6.4838725    5.7771724    4.8196152    4.7006760    5.6616663  
  34 C       6.9535724    6.2142105    5.6801230    6.0396615    6.9344186  
  35 C       1.3903714 *  2.3499191 *  2.7343152 *  2.4509388 *  1.4043650 *
  36 C       0.0000000    1.3976585 *  2.4490464 *  2.8891537 *  2.4532933 *
  37 C       1.3976585 *  0.0000000    1.4042685 *  2.4409280 *  2.7421683 *
  38 C       2.4490464 *  1.4042685 *  0.0000000    1.3771570 *  2.3541423 *
  39 C       2.8891537 *  2.4409280 *  1.3771570 *  0.0000000    1.4081554 *
  40 C       2.4532933 *  2.7421683 *  2.3541423 *  1.4081554 *  0.0000000  
  41 C       4.5991160    4.8373667    4.0916930    2.7998961 *  2.3608071 *
  42 C       3.5220127    4.0233665    3.5984014    2.4413612 *  1.3743942 *
  43 C       5.8749013    5.2127783    4.0713325    3.6583992    4.6378314  
  44 C       4.8385595    4.0313923    2.7723549 *  2.4774439 *  3.6838491  
  45 C       4.1670770    3.6516517    2.4060057 *  1.4281200 *  2.4449465 *
  46 C       4.8470247    4.6829913    3.6270695    2.4119630 *  2.7313164 *
  47 C       1.4337171 *  2.4113595 *  3.6062043    4.1349673    3.6523889  
  48 C       2.4230509 *  2.7286670 *  3.9524558    4.7998826    4.6630390  
  49 C       2.4321921 *  3.5933841    3.9763635    3.4861143    2.2278033 *
  50 C       2.7601518 *  4.0111437    4.6636275    4.4465457    3.3925915  
  51 C       2.3941272 *  3.5512424    4.5028586    4.6907953    3.9289380  
  52 C       3.5325922    4.4341621    4.4062881    3.5133075    2.2484901 *
  53 C       3.9561752    5.0549709    5.5345773    5.1913859    4.2151119  
  54 C       4.7052193    5.6766947    5.8476129    5.2094296    4.2257056  
  55 C       4.5849750    5.4679351    5.4027934    4.5023899    3.4322030  
  56 C       6.2191798    6.3405644    5.5197488    4.4207351    4.3389504  
  57 C       5.5159557    5.8823904    5.2371787    4.0466088    3.5552657  
  58 C       5.4824646    6.1238745    5.7783589    4.7406346    3.9607676  
  59 C       6.8374769    6.9920459    6.2940424    5.3776504    5.3082874  
  60 C       7.0056527    6.6947784    5.7787517    5.1730479    5.7040690  
  61 C       6.3118994    5.9202954    4.8409909    4.0960087    4.7429485  
  62 C       5.8946661    5.7255621    4.6894658    3.6378313    3.9723050  
  63 C       7.2140771    7.1624021    6.4153115    5.7067971    5.9209984  
  64 C       7.4557265    6.9414343    6.4574745    6.6149740    7.3125121  
  65 C       7.5070296    7.1230427    6.5040276    6.3676783    6.9581991  
  66 C       7.1183081    6.6396598    5.7924102    5.5006537    6.2124045  
  67 C       7.4762560    7.4680194    7.2526442    7.1573066    7.3495941  
  68 C       7.4962151    7.3580271    7.2594574    7.4200493    7.7362964  
  69 C       7.5670867    7.1758045    6.9545149    7.2457673    7.8015782  
  70 C       7.4129491    7.4461404    6.9122535    6.3902012    6.5220205  
  71 C       7.5901067    7.4682178    6.9967402    6.7320553    7.0440101  
  72 C       6.0839910    6.6967897    6.4270124    5.5637375    4.9366502  
  73 C       6.7466010    7.1248348    6.6826965    5.8623106    5.5438647  
  74 C       7.0498815    7.3458620    6.9982782    6.4102902    6.2385127  
  75 C       6.7208067    7.1384841    7.0563020    6.6688838    6.3946531  
  76 C       6.9832618    7.2324176    7.2047458    7.0541768    6.9806635  

               41 C         42 C         43 C         44 C         45 C     

   1 C       5.9611192    5.1789362    7.0613284    6.6551831    6.2860212  
   2 C       6.8010196    6.1290711    7.1511304    6.7870503    6.7016098  
   3 C       7.0531194    6.3097426    7.0763639    6.5070618    6.5162754  
   4 C       7.6914578    7.1017506    6.9735771    6.4641241    6.7682215  
   5 C       8.0942686    7.6934722    6.9601673    6.7147887    7.1997251  
   6 C       6.7123575    6.4630914    6.7966868    6.9269918    6.9719631  
   7 C       7.1950166    6.7652152    7.0641886    6.9701274    7.0865546  
   8 C       7.8609610    7.5372351    6.9936449    6.9474590    7.3392076  
   9 C       6.9657347    6.9804104    6.4101426    6.8038479    7.0735845  
  10 C       7.6223294    7.6896591    6.3339595    6.7640507    7.2984535  
  11 C       8.0694406    7.9737856    6.6556384    6.8604587    7.4536716  
  12 C       5.8466088    5.5532266    6.7158272    6.8046939    6.5698713  
  13 C       5.2370884    5.2339039    6.2698861    6.5738628    6.2862112  
  14 C       5.4965472    4.8931735    6.9108279    6.7193528    6.2705476  
  15 C       4.2438381    4.2387019    6.1293006    6.3330637    5.7597840  
  16 C       7.6191766    7.2462574    5.9224809    5.3210945    5.9996782  
  17 C       8.0608812    7.8608308    5.9364246    5.6515386    6.5136500  
  18 C       7.4890534    6.9012879    6.5267325    5.8250713    6.1991272  
  19 C       8.3528878    8.1338434    6.5291784    6.4062640    7.1557434  
  20 C       8.3528326    8.3138997    6.3448998    6.5169622    7.3307046  
  21 C       7.6284427    7.6469850    4.9309190    4.8153122    5.8989868  
  22 C       7.6482764    7.8551837    4.7126948    4.9884875    6.1338676  
  23 C       8.0685623    8.2419207    5.5282689    5.9166459    6.9093828  
  24 C       5.9261382    5.2381852    5.5154724    4.4294776    4.4729517  
  25 C       5.9892595    5.5921235    4.6843045    3.6433269    4.0946662  
  26 C       6.7037285    5.9488062    6.3650498    5.4606477    5.5409569  
  27 C       6.8678196    6.6049907    4.9218716    4.1885007    4.9629692  
  28 C       6.8250663    6.8324552    4.1495911    3.7484459    4.8420711  
  29 C       4.9258165    4.7060512    3.6129269    2.3964125 *  2.8075904 *
  30 C       4.8207725    4.9914271    2.4037007 *  1.4322529 *  2.5321877 *
  31 C       5.9005923    6.1348171    2.8111363 *  2.5270850 *  3.8136055  
  32 C       6.0034347    6.4788212    2.4402985 *  2.9057346 *  4.2442416  
  33 C       5.1359109    5.8521504    1.3909607 *  2.4534677 *  3.6596395  
  34 C       6.8978108    7.3207484    3.6170905    4.1903087    5.4148541  
  35 C       3.4595895    2.2384127 *  5.6082809    4.6638889    3.6494326  
  36 C       4.5991160    3.5220127    5.8749013    4.8385595    4.1670770  
  37 C       4.8373667    4.0233665    5.2127783    4.0313923    3.6516517  
  38 C       4.0916930    3.5984014    4.0713325    2.7723549 *  2.4060057 *
  39 C       2.7998961 *  2.4413612 *  3.6583992    2.4774439 *  1.4281200 *
  40 C       2.3608071 *  1.3743942 *  4.6378314    3.6838491    2.4449465 *
  41 C       0.0000000    1.3618294 *  3.9897548    3.6980045    2.4693620 *
  42 C       1.3618294 *  0.0000000    4.7816941    4.1702718    2.8461674 *
  43 C       3.9897548    4.7816941    0.0000000    1.4133828 *  2.4261820 *
  44 C       3.6980045    4.1702718    1.4133828 *  0.0000000    1.4556710 *
  45 C       2.4693620 *  2.8461674 *  2.4261820 *  1.4556710 *  0.0000000  
  46 C       1.3891015 *  2.3839266 *  2.7371665 *  2.4692938 *  1.4209655 *
  47 C       5.5021150    4.4592262    6.6069241    5.7480338    5.2563138  
  48 C       6.4447024    5.5574895    6.7744810    5.9627546    5.7993007  
  49 C       3.4214403    2.2013724 *  6.1458845    5.4537762    4.3983657  
  50 C       4.4302658    3.3938517    6.6891031    6.1238358    5.2975157  
  51 C       5.3236336    4.3144934    6.8698510    6.2284980    5.6405056  
  52 C       2.3837123 *  1.3773967 *  5.7382312    5.2381625    4.0528362  
  53 C       4.5782122    3.8590703    6.7521500    6.4686148    5.7445882  
  54 C       3.8738255    3.4606858    6.3885879    6.2905459    5.4878279  
  55 C       2.7369343 *  2.3673501 *  5.9241675    5.7437583    4.7192802  
  56 C       2.2087304 *  3.4265529    3.5584276    4.0781631    3.5183518  
  57 C       1.3915701 *  2.3811352 *  4.3777256    4.4989240    3.5485845  
  58 C       2.3996958 *  2.7538289 *  5.3402796    5.4478118    4.5377139  
  59 C       3.4161315    4.4500680    3.9381767    4.7441307    4.4968568  
  60 C       4.3297383    5.3567494    2.2221421 *  3.4976927    4.0003473  
  61 C       3.4140352    4.4825699    1.3758516 *  2.4504906 *  2.7920326 *
  62 C       2.2057051 *  3.4341707    2.3801471 *  2.8539565 *  2.4516021 *
  63 C       4.3113282    5.3176927    3.4206051    4.5126864    4.6968766  
  64 C       6.9401391    7.4619986    4.0128592    4.8624259    5.9125784  
  65 C       6.1641653    6.8716935    3.5068740    4.6102148    5.4883966  
  66 C       5.2776653    6.1231986    2.2547857 *  3.5269181    4.4302160  
  67 C       6.6986395    7.1360053    5.2875511    6.1033979    6.6284481  
  68 C       7.4511371    7.7519397    5.6406229    6.3148552    7.0107802  
  69 C       7.6378533    7.9845597    5.1545774    5.8245545    6.7610963  
  70 C       5.1958848    5.9835616    4.2686545    5.2946516    5.5708217  
  71 C       6.0746377    6.7476154    4.3456174    5.3812133    5.9582058  
  72 C       3.5100033    3.9118480    5.5189737    5.8753187    5.2578583  
  73 C       3.9188445    4.6344933    4.9226804    5.5865225    5.2599907  
  74 C       4.9414602    5.5487843    5.0701130    5.8516859    5.8212666  
  75 C       5.5549513    5.8519200    5.7840072    6.3710230    6.3434830  
  76 C       6.4125148    6.6716462    5.8649084    6.4857729    6.7314526  

               46 C         47 C         48 C         49 C         50 C     

   1 C       6.4531991    2.4391195 *  2.7359103 *  3.4615155    2.2330368 *
   2 C       7.0541905    2.8792539 *  2.4519595 *  4.6073918    3.5147146  
   3 C       7.1396702    2.4400057 *  1.4011368 *  4.8669692    4.0210603  
   4 C       7.5392263    3.5207818    2.2508782 *  5.9511587    5.2413452  
   5 C       7.8650219    4.6006445    3.4760456    6.7054973    5.9315600  
   6 C       6.9487719    4.8354000    4.6729622    5.4512803    4.4317778  
   7 C       7.3384430    4.1613153    3.6572675    5.5335016    4.4738676  
   8 C       7.7636299    4.8451562    4.0048071    6.5217324    5.6082385  
   9 C       7.0029609    5.8803816    5.6263353    6.3622802    5.5246783  
  10 C       7.4246067    6.3245020    5.8039269    7.1862290    6.4264800  
  11 C       7.8169190    5.8990309    5.1173076    7.2842525    6.4888131  
  12 C       6.3310858    4.5961519    4.8508645    4.5112031    3.5033253  
  13 C       5.7626964    5.4821540    5.9059611    4.7035529    4.0138713  
  14 C       6.1329376    3.4926968    4.0011601    3.4177031    2.2272195 *
  15 C       5.0291126    5.4315905    6.1566660    3.9274322    3.5358543  
  16 C       7.0660322    4.5746116    3.4701174    6.7255282    6.4576346  
  17 C       7.4467386    5.4701647    4.3792853    7.4318350    7.0580221  
  18 C       7.1790774    3.5199269    2.2549175 *  5.9924823    5.5711190  
  19 C       7.8991803    5.5309458    4.4242390    7.4823098    6.8792166  
  20 C       7.8849135    6.2595516    5.3315532    7.8232856    7.1958559  
  21 C       6.8226993    6.0689691    5.1939396    7.6127411    7.4254564  
  22 C       6.8294008    6.7427736    5.9848747    7.9580338    7.7250684  
  23 C       7.4258358    6.8873402    6.1000844    8.1184272    7.6748077  
  24 C       5.6058073    2.7658368 *  2.3491061 *  4.6842047    4.7981285  
  25 C       5.3587689    3.9676582    3.4912303    5.5098742    5.7239842  
  26 C       6.5264302    2.4236450 *  1.3767061 *  4.9494329    4.6784917  
  27 C       6.1500028    4.7236125    3.9287043    6.4694961    6.4807555  
  28 C       5.9288992    5.6491034    4.9581250    7.0127906    7.0593075  
  29 C       4.1485785    4.3433889    4.2673148    5.1327254    5.6222412  
  30 C       3.7553407    5.3794570    5.2927692    5.8055902    6.2982626  
  31 C       4.8415643    5.9593720    5.5746894    6.7401616    6.9919595  
  32 C       4.9218620    6.7246509    6.3872578    7.2163475    7.3919872  
  33 C       4.0076294    6.9809023    6.9030640    6.9142205    7.2223446  
  34 C       5.9676742    7.0447952    6.5300819    7.7768343    7.7122692  
  35 C       3.9910732    2.4330280 *  3.6339447    1.3809728 *  2.3431109 *
  36 C       4.8470247    1.4337171 *  2.4230509 *  2.4321921 *  2.7601518 *
  37 C       4.6829913    2.4113595 *  2.7286670 *  3.5933841    4.0111437  
  38 C       3.6270695    3.6062043    3.9524558    3.9763635    4.6636275  
  39 C       2.4119630 *  4.1349673    4.7998826    3.4861143    4.4465457  
  40 C       2.7313164 *  3.6523889    4.6630390    2.2278033 *  3.3925915  
  41 C       1.3891015 *  5.5021150    6.4447024    3.4214403    4.4302658  
  42 C       2.3839266 *  4.4592262    5.5574895    2.2013724 *  3.3938517  
  43 C       2.7371665 *  6.6069241    6.7744810    6.1458845    6.6891031  
  44 C       2.4692938 *  5.7480338    5.9627546    5.4537762    6.1238358  
  45 C       1.4209655 *  5.2563138    5.7993007    4.3983657    5.2975157  
  46 C       0.0000000    5.8293369    6.5431153    4.3219847    5.2540527  
  47 C       5.8293369    0.0000000    1.3844463 *  2.8336356 *  2.4143959 *
  48 C       6.5431153    1.3844463 *  0.0000000    4.1367347    3.5919088  
  49 C       4.3219847    2.8336356 *  4.1367347    0.0000000    1.3684870 *
  50 C       5.2540527    2.4143959 *  3.5919088    1.3684870 *  0.0000000  
  51 C       5.8907763    1.3938003 *  2.3552408 *  2.3829356 *  1.3576733 *
  52 C       3.5568116    4.0912612    5.3068975    1.3696644 *  2.3778841 *
  53 C       5.4486166    3.4907412    4.4104421    2.3566461 *  1.3753118 *
  54 C       4.8714790    4.5603823    5.5119865    2.7217236 *  2.3733713 *
  55 C       3.9358111    4.8563581    5.9526017    2.3937548 *  2.7794585 *
  56 C       2.2417938 *  6.8445414    7.5553254    5.0391282    5.6462583  
  57 C       2.2715823 *  6.1656691    7.0763478    3.9742515    4.7025280  
  58 C       3.4576771    5.8510085    6.8134602    3.5622003    3.9889827  
  59 C       3.4212209    7.2179988    7.7880162    5.6585234    5.9653829  
  60 C       3.5200244    7.4684220    7.7008586    6.6367303    6.9618615  
  61 C       2.3449065 *  7.0101220    7.3633926    6.0377868    6.6032354  
  62 C       1.3735132 *  6.6914698    7.2895552    5.2278147    5.9578181  
  63 C       3.9223371    7.5291039    7.8693380    6.4331871    6.6295660  
  64 C       6.1578146    7.4234535    7.0062872    7.8911458    7.7133373  
  65 C       5.4317281    7.5923511    7.4227442    7.5474682    7.4780641  
  66 C       4.3568404    7.4651351    7.4496321    7.1501595    7.3343574  
  67 C       6.4280509    7.1514104    6.9684412    7.2099524    6.7399621  
  68 C       7.0747386    7.0562617    6.6118529    7.6370458    7.0800706  
  69 C       7.0291444    7.2722073    6.7033786    8.0469808    7.6370114  
  70 C       4.9503555    7.4655676    7.6680557    6.6705239    6.5812480  
  71 C       5.6437275    7.5270800    7.4761754    7.2482763    7.0351520  
  72 C       4.2647963    6.1874271    6.9628537    4.3353562    4.3598051  
  73 C       4.2676936    6.8822508    7.4703130    5.3389219    5.3747028  
  74 C       5.0763943    6.9792770    7.3318639    5.9553303    5.7368951  
  75 C       5.7997780    6.3722087    6.6181079    5.7282140    5.1960027  
  76 C       6.4322629    6.5094993    6.4622197    6.4398633    5.8045149  

               51 C         52 C         53 C         54 C         55 C     

   1 C       1.4086469 *  4.3752543    2.2361409 *  3.4769803    4.4270083  
   2 C       2.4500574 *  5.5224443    3.5273559    4.6496491    5.5919952  
   3 C       2.7469437 *  5.9259507    4.4409215    5.5706154    6.2834147  
   4 C       4.0326197    6.9157028    5.5993280    6.6057070    7.2668258  
   5 C       4.8500364    7.5043590    5.9994178    6.8727419    7.6413512  
   6 C       4.0409499    5.8338385    3.6540107    4.2000908    5.3408413  
   7 C       3.6614840    6.2085654    4.1039610    4.9696939    6.0190996  
   8 C       4.6942197    7.1895491    5.3674243    6.1549481    7.0847919  
   9 C       5.2280051    6.5412102    4.6992366    4.9386969    5.9462626  
  10 C       5.9424841    7.4350041    5.7959640    6.1005733    6.9901409  
  11 C       5.7431915    7.7535864    6.1023731    6.6515028    7.5241792  
  12 C       3.5228385    4.7451263    2.4476561 *  2.8546376 *  4.0942628  
  13 C       4.4309767    4.5067629    2.7955985 *  2.4579794 *  3.5397333  
  14 C       2.2494216 *  3.9376296    1.3757460 *  2.3843559 *  3.5770398  
  15 C       4.3606914    3.4260517    2.3526514 *  1.3796726 *  2.2573980 *
  16 C       5.4609892    7.5073714    6.9540391    7.7053529    8.0294162  
  17 C       6.1137099    8.0864675    7.3103055    7.9688081    8.4048083  
  18 C       4.4275200    6.9535709    6.1593569    7.0886203    7.5130186  
  19 C       5.9017967    8.1472518    6.9297686    7.6366049    8.2834519  
  20 C       6.3901138    8.3040816    6.9963864    7.5260292    8.2296485  
  21 C       6.6821588    8.0604889    7.6171106    8.0608426    8.3428814  
  22 C       7.1190403    8.2319378    7.6819475    7.9636567    8.3012469  
  23 C       7.0425561    8.4091549    7.4380529    7.7525560    8.2995819  
  24 C       4.0084113    5.5814496    5.7210383    6.4682936    6.4690884  
  25 C       5.0579985    6.1662744    6.4792862    7.0401193    6.9628848  
  26 C       3.5865284    6.0023131    5.5062379    6.4593733    6.7394706  
  27 C       5.6918778    7.1033603    7.0513329    7.6313021    7.7233345  
  28 C       6.4217900    7.4246842    7.4280750    7.8146842    7.8812585  
  29 C       5.2755803    5.5215874    6.3336101    6.6493932    6.3385390  
  30 C       6.0916194    5.9141161    6.7651042    6.8579725    6.5138829  
  31 C       6.6176268    6.9037749    7.2977157    7.4482666    7.3230151  
  32 C       7.1370593    7.1890573    7.4395711    7.4146121    7.3528753  
  33 C       7.2234630    6.6317077    7.1589722    6.8909141    6.6786060  
  34 C       7.3360428    7.8265578    7.5983100    7.6501177    7.8285866  
  35 C       2.7151648 *  2.2557496 *  3.4727411    3.8990760    3.4662446  
  36 C       2.3941272 *  3.5325922    3.9561752    4.7052193    4.5849750  
  37 C       3.5512424    4.4341621    5.0549709    5.6766947    5.4679351  
  38 C       4.5028586    4.4062881    5.5345773    5.8476129    5.4027934  
  39 C       4.6907953    3.5133075    5.1913859    5.2094296    4.5023899  
  40 C       3.9289380    2.2484901 *  4.2151119    4.2257056    3.4322030  
  41 C       5.3236336    2.3837123 *  4.5782122    3.8738255    2.7369343 *
  42 C       4.3144934    1.3773967 *  3.8590703    3.4606858    2.3673501 *
  43 C       6.8698510    5.7382312    6.7521500    6.3885879    5.9241675  
  44 C       6.2284980    5.2381625    6.4686148    6.2905459    5.7437583  
  45 C       5.6405056    4.0528362    5.7445882    5.4878279    4.7192802  
  46 C       5.8907763    3.5568116    5.4486166    4.8714790    3.9358111  
  47 C       1.3938003 *  4.0912612    3.4907412    4.5603823    4.8563581  
  48 C       2.3552408 *  5.3068975    4.4104421    5.5119865    5.9526017  
  49 C       2.3829356 *  1.3696644 *  2.3566461 *  2.7217236 *  2.3937548 *
  50 C       1.3576733 *  2.3778841 *  1.3753118 *  2.3733713 *  2.7794585 *
  51 C       0.0000000    3.5628227    2.2270925 *  3.4495894    4.0182826  
  52 C       3.5628227    0.0000000    2.7203228 *  2.3549256 *  1.3776273 *
  53 C       2.2270925 *  2.7203228 *  0.0000000    1.3537929 *  2.3860294 *
  54 C       3.4495894    2.3549256 *  1.3537929 *  0.0000000    1.3816549 *
  55 C       4.0182826    1.3776273 *  2.3860294 *  1.3816549 *  0.0000000  
  56 C       6.4690284    3.9718908    5.2818523    4.2895990    3.5328446  
  57 C       5.7035872    2.7606831 *  4.4354008    3.4056619    2.3694453 *
  58 C       5.1018249    2.3937602 *  3.4307041    2.2129403 *  1.3632947 *
[...]
   48  C 12  Z   -0.151293  -0.113557
   49  C 13  S    0.015705   0.015559
   50  C 13  X    0.008196  -0.017261
   51  C 13  Y   -0.038187  -0.027018
   52  C 13  Z    0.107797   0.099061
   53  C 14  S    0.041773  -0.028957
   54  C 14  X    0.002190   0.002629
   55  C 14  Y    0.035893  -0.031990
   56  C 14  Z    0.164047  -0.051306
   57  C 15  S    0.042536   0.010746
   58  C 15  X   -0.090473  -0.028635
   59  C 15  Y   -0.007888  -0.012363
   60  C 15  Z    0.117385   0.014699
   61  C 16  S    0.000805   0.043047
   62  C 16  X    0.003575   0.148828
   63  C 16  Y    0.000729   0.058866
   64  C 16  Z   -0.031774  -0.051976
   65  C 17  S    0.012914  -0.026924
   66  C 17  X    0.041321  -0.115430
   67  C 17  Y   -0.006145  -0.005527
   68  C 17  Z   -0.026641   0.059490
   69  C 18  S    0.018272  -0.025379
   70  C 18  X    0.048956  -0.072188
   71  C 18  Y    0.059680  -0.033059
   72  C 18  Z   -0.005296   0.019060
   73  C 19  S    0.014331  -0.029154
   74  C 19  X    0.045034  -0.121156
   75  C 19  Y    0.006534   0.005427
   76  C 19  Z    0.026929  -0.059701
   77  C 20  S    0.001783   0.041806
   78  C 20  X    0.005401   0.146675
   79  C 20  Y   -0.002414  -0.057618
   80  C 20  Z    0.032444   0.050736
   81  C 21  S   -0.032863   0.040488
   82  C 21  X   -0.109511   0.140922
   83  C 21  Y    0.021433  -0.033261
   84  C 21  Z    0.085184  -0.092634
   85  C 22  S    0.006569  -0.011313
   86  C 22  X    0.012626  -0.041975
   87  C 22  Y    0.017250   0.002195
   88  C 22  Z   -0.005610   0.034377
   89  C 23  S    0.016822  -0.023162
   90  C 23  X    0.044763  -0.066179
   91  C 23  Y   -0.057561   0.029648
   92  C 23  Z    0.005323  -0.019227
   93  C 24  S    0.001203   0.030187
   94  C 24  X    0.015093   0.044934
   95  C 24  Y    0.016708   0.042066
   96  C 24  Z    0.002225  -0.029189
   97  C 25  S    0.014163  -0.033453
   98  C 25  X    0.037838  -0.034002
   99  C 25  Y    0.011679  -0.065830
  100  C 25  Z   -0.028077   0.079075
  101  C 26  S   -0.025410  -0.030918
  102  C 26  X   -0.062948  -0.023587
  103  C 26  Y   -0.099543  -0.095348
  104  C 26  Z    0.013715   0.003439
  105  C 27  S   -0.043317  -0.000654
  106  C 27  X   -0.114765  -0.010473
  107  C 27  Y   -0.036139   0.003801
  108  C 27  Z    0.133272  -0.026132
  109  C 28  S    0.041221  -0.010982
  110  C 28  X    0.087308  -0.028990
  111  C 28  Y   -0.007022   0.012554
  112  C 28  Z   -0.113060   0.015438
  113  C 29  S    0.041117   0.028631
  114  C 29  X   -0.002792   0.002936
  115  C 29  Y    0.035931   0.032072
  116  C 29  Z   -0.162040  -0.050466
  117  C 30  S   -0.032998   0.000326
  118  C 30  X   -0.033019   0.014570
  119  C 30  Y   -0.011396  -0.030390
  120  C 30  Z    0.151856  -0.114035
  121  C 31  S    0.016164  -0.015634
  122  C 31  X   -0.006772  -0.017053
  123  C 31  Y   -0.037485   0.027073
  124  C 31  Z   -0.110739   0.099869
  125  C 32  S   -0.031233   0.018995
  126  C 32  X   -0.069155   0.044603
  127  C 32  Y    0.069383  -0.021850
  128  C 32  Z    0.135991  -0.028234
  129  C 33  S   -0.022214   0.034901
  130  C 33  X    0.016127   0.005566
  131  C 33  Y    0.025588  -0.107296
  132  C 33  Z    0.046001  -0.115548
  133  C 34  S    0.026693  -0.036729
  134  C 34  X    0.043341  -0.035764
  135  C 34  Y   -0.085011   0.098306
  136  C 34  Z   -0.095167   0.077170
  137  C 35  S    0.006767  -0.038313
  138  C 35  X   -0.007559   0.055461
  139  C 35  Y    0.041904  -0.114620
  140  C 35  Z    0.017210   0.034941
  141  C 36  S   -0.019667  -0.027130
  142  C 36  X    0.003808  -0.025633
  143  C 36  Y   -0.072243  -0.068380
  144  C 36  Z    0.037509   0.013586
  145  C 37  S    0.029327   0.039236
  146  C 37  X   -0.011078  -0.026282
  147  C 37  Y    0.089023   0.137319
  148  C 37  Z   -0.059872  -0.085216
  149  C 38  S   -0.022205  -0.034195
  150  C 38  X   -0.016291   0.005139
  151  C 38  Y   -0.025875  -0.105933
  152  C 38  Z    0.045868   0.111823
  153  C 39  S   -0.031745  -0.020169
  154  C 39  X    0.070071   0.046120
  155  C 39  Y   -0.070633  -0.024704
  156  C 39  Z    0.136694   0.030878
  157  C 40  S    0.026998   0.038069
  158  C 40  X   -0.044039  -0.038820
  159  C 40  Y    0.086080   0.101537
  160  C 40  Z   -0.095447  -0.079965
  161  C 41  S   -0.033202  -0.041682
  162  C 41  X    0.110906   0.143922
  163  C 41  Y   -0.022083  -0.033001
  164  C 41  Z    0.085432   0.093744
  165  C 42  S    0.006681   0.009755
  166  C 42  X   -0.013157  -0.038311
  167  C 42  Y   -0.017089  -0.001439
  168  C 42  Z   -0.005948  -0.032711
  169  C 43  S    0.040812  -0.027855
  170  C 43  X    0.002196   0.001801
  171  C 43  Y   -0.035135   0.031166
  172  C 43  Z   -0.161673   0.048483
  173  C 44  S   -0.032939  -0.000377
  174  C 44  X    0.033486   0.014539
  175  C 44  Y    0.010704  -0.029871
  176  C 44  Z    0.151125   0.112380
  177  C 45  S    0.016374   0.014597
  178  C 45  X    0.006167  -0.014736
  179  C 45  Y    0.038194   0.027099
  180  C 45  Z   -0.111136  -0.094209
  181  C 46  S    0.041175   0.012751
  182  C 46  X   -0.087882  -0.032999
  183  C 46  Y    0.007551   0.014049
  184  C 46  Z   -0.112592  -0.021298
  185  C 47  S   -0.020672   0.027252
  186  C 47  X   -0.004564  -0.025034
  187  C 47  Y   -0.076736   0.067994
  188  C 47  Z   -0.037870   0.013720
  189  C 48  S    0.006854   0.038138
  190  C 48  X    0.007921   0.056620
  191  C 48  Y    0.044114   0.114735
  192  C 48  Z   -0.016510   0.035682
  193  C 49  S   -0.025746   0.031206
  194  C 49  X    0.061620  -0.023455
  195  C 49  Y   -0.100055   0.096214
  196  C 49  Z   -0.014713   0.003940
  197  C 50  S    0.002494  -0.030396
  198  C 50  X   -0.016390   0.044854
  199  C 50  Y    0.020133  -0.042914
  200  C 50  Z    0.000544  -0.029653
  201  C 51  S    0.029094  -0.039153
  202  C 51  X    0.012158  -0.027303
  203  C 51  Y    0.087992  -0.136852
  204  C 51  Z    0.059300  -0.085900
  205  C 52  S    0.016936   0.025146
  206  C 52  X   -0.044995  -0.071478
  207  C 52  Y    0.057497   0.032825
  208  C 52  Z    0.005810   0.019311
  209  C 53  S    0.012764   0.033460
  210  C 53  X   -0.036057  -0.033349
  211  C 53  Y    0.008983   0.065787
  212  C 53  Z    0.024096   0.079058
  213  C 54  S   -0.043203   0.000972
  214  C 54  X    0.115119  -0.011427
  215  C 54  Y   -0.035876  -0.003378
  216  C 54  Z   -0.133085  -0.025295
  217  C 55  S    0.001363  -0.043305
  218  C 55  X   -0.004193   0.148763
  219  C 55  Y    0.001846  -0.059711
  220  C 55  Z    0.031858  -0.052580
  221  C 56  S    0.000514  -0.041820
  222  C 56  X   -0.002845   0.147195
  223  C 56  Y   -0.000314   0.056614
  224  C 56  Z   -0.031378   0.051090
  225  C 57  S    0.013122   0.029000
  226  C 57  X   -0.042211  -0.120555
  227  C 57  Y    0.006238  -0.004388
  228  C 57  Z   -0.026864  -0.059584
  229  C 58  S    0.014480   0.027040
  230  C 58  X   -0.045721  -0.115993
  231  C 58  Y   -0.006556   0.006192
  232  C 58  Z    0.027484   0.059577
  233  C 59  S    0.018366   0.023309
  234  C 59  X   -0.049084  -0.066703
  235  C 59  Y   -0.059486  -0.029227
  236  C 59  Z   -0.005410  -0.019193
  237  C 60  S    0.001001  -0.028108
  238  C 60  X   -0.014774   0.042551
  239  C 60  Y   -0.016366   0.036763
  240  C 60  Z    0.002389   0.024986
  241  C 61  S    0.014313   0.031343
  242  C 61  X   -0.037901  -0.031518
  243  C 61  Y   -0.011779  -0.060998
  244  C 61  Z   -0.028170  -0.073076
  245  C 62  S   -0.043153   0.000604
  246  C 62  X    0.114832  -0.009808
  247  C 62  Y    0.035563   0.002817
  248  C 62  Z    0.132672   0.025167
  249  C 63  S   -0.025125   0.030261
  250  C 63  X    0.062623  -0.024502
  251  C 63  Y    0.098581  -0.094666
  252  C 63  Z    0.013780  -0.002831
  253  C 64  S    0.006905   0.038393
  254  C 64  X    0.007854   0.055244
  255  C 64  Y   -0.042058  -0.117090
  256  C 64  Z    0.017007  -0.036561
  257  C 65  S   -0.019337   0.025602
  258  C 65  X   -0.003752  -0.025927
  259  C 65  Y    0.070509  -0.060009
  260  C 65  Z    0.037453  -0.013297
  261  C 66  S    0.028992  -0.039315
  262  C 66  X    0.010652  -0.025055
  263  C 66  Y   -0.087922   0.137803
  264  C 66  Z   -0.059772   0.087093
  265  C 67  S    0.029359   0.039163
  266  C 67  X   -0.012196  -0.025945
  267  C 67  Y   -0.088580  -0.137198
  268  C 67  Z    0.059261   0.086163
  269  C 68  S    0.002800   0.028066
  270  C 68  X    0.016841   0.042338
  271  C 68  Y   -0.020881  -0.037271
  272  C 68  Z    0.000840   0.024883
  273  C 69  S   -0.026028  -0.030196
  274  C 69  X   -0.062066  -0.023800
  275  C 69  Y    0.101048   0.094572
  276  C 69  Z   -0.014260  -0.002436
  277  C 70  S    0.006708  -0.038361
  278  C 70  X   -0.007657   0.056293
  279  C 70  Y   -0.043384   0.117726
  280  C 70  Z   -0.016703  -0.036267
  281  C 71  S   -0.020892  -0.025538
  282  C 71  X    0.004263  -0.025552
  283  C 71  Y    0.077865   0.059209
  284  C 71  Z   -0.037739  -0.012782
  285  C 72  S   -0.034072  -0.040373
  286  C 72  X    0.112615   0.140684
  287  C 72  Y    0.020924   0.032523
  288  C 72  Z   -0.087052  -0.092076
  289  C 73  S    0.005567   0.011015
  290  C 73  X   -0.010261  -0.041739
  291  C 73  Y    0.019975  -0.001735
  292  C 73  Z    0.004830   0.034231
  293  C 74  S    0.028157   0.036810
  294  C 74  X   -0.046288  -0.036407
  295  C 74  Y   -0.088131  -0.097977
  296  C 74  Z    0.098051   0.076328
  297  C 75  S   -0.032684  -0.019083
  298  C 75  X    0.071069   0.043897
  299  C 75  Y    0.072050   0.021101
  300  C 75  Z   -0.138905  -0.026802
  301  C 76  S   -0.022036  -0.034275
  302  C 76  X   -0.016954   0.006334
  303  C 76  Y    0.025125   0.107960
  304  C 76  Z   -0.044155  -0.115359

     ----------------------------------------------------------------
     PROPERTY VALUES FOR THE RHF   SELF-CONSISTENT FIELD WAVEFUNCTION
     ----------------------------------------------------------------

                    -------------
                    MOPAC CHARGES
                    -------------
         ATOM NO.   TYPE          CHARGE        ATOM  ELECTRON DENSITY
           1         C             -0.0135          4.0135
           2         C              0.0163          3.9837
           3         C             -0.0101          4.0101
           4         C             -0.0065          4.0065
           5         C              0.0075          3.9925
           6         C              0.0193          3.9807
           7         C              0.0213          3.9787
           8         C             -0.0152          4.0152
           9         C             -0.0136          4.0136
          10         C             -0.0161          4.0161
          11         C             -0.0004          4.0004
          12         C              0.0188          3.9812
          13         C              0.0216          3.9784
          14         C             -0.0134          4.0134
          15         C             -0.0155          4.0155
          16         C              0.0065          3.9935
          17         C             -0.0009          4.0009
          18         C             -0.0024          4.0024
          19         C             -0.0008          4.0008
          20         C              0.0065          3.9935
          21         C              0.0077          3.9923
          22         C             -0.0066          4.0066
          23         C             -0.0024          4.0024
          24         C              0.0079          3.9921
          25         C             -0.0162          4.0162
          26         C              0.0154          3.9846
          27         C             -0.0003          4.0003
          28         C             -0.0154          4.0154
          29         C             -0.0137          4.0137
          30         C              0.0192          3.9808
          31         C              0.0215          3.9785
          32         C              0.0161          3.9839
          33         C             -0.0132          4.0132
          34         C             -0.0101          4.0101
          35         C             -0.0226          4.0226
          36         C              0.0341          3.9659
          37         C             -0.0271          4.0271
          38         C             -0.0132          4.0132
          39         C              0.0160          3.9840
          40         C             -0.0098          4.0098
          41         C              0.0078          3.9922
          42         C             -0.0068          4.0068
          43         C             -0.0136          4.0136
          44         C              0.0191          3.9809
          45         C              0.0216          3.9784
          46         C             -0.0156          4.0156
          47         C              0.0339          3.9661
          48         C             -0.0224          4.0224
          49         C              0.0156          3.9844
          50         C              0.0076          3.9924
          51         C             -0.0268          4.0268
          52         C             -0.0023          4.0023
          53         C             -0.0163          4.0163
          54         C             -0.0003          4.0003
          55         C              0.0064          3.9936
          56         C              0.0065          3.9935
          57         C             -0.0010          4.0010
          58         C             -0.0007          4.0007
          59         C             -0.0024          4.0024
          60         C              0.0077          3.9923
          61         C             -0.0163          4.0163
          62         C             -0.0002          4.0002
          63         C              0.0156          3.9844
          64         C             -0.0224          4.0224
          65         C              0.0340          3.9660
          66         C             -0.0270          4.0270
          67         C             -0.0270          4.0270
          68         C              0.0077          3.9923
          69         C              0.0156          3.9844
          70         C             -0.0227          4.0227
          71         C              0.0341          3.9659
          72         C              0.0076          3.9924
          73         C             -0.0066          4.0066
          74         C             -0.0099          4.0099
          75         C              0.0163          3.9837
          76         C             -0.0135          4.0135

          ---------------------
          ELECTROSTATIC MOMENTS
          ---------------------

 POINT   1           X           Y           Z (ANGS)      CHARGE
                 0.000000    0.000000    0.000000       -0.00 (A.U.)
         DX          DY          DZ         /D/  (DEBYE)
     0.000744    0.000781   -0.001787    0.002087
 ...... END OF PROPERTY EVALUATION ......
 CPU     0: STEP CPU TIME=     0.19 TOTAL CPU TIME=          5.2 (      0.1 MIN)
 TOTAL WALL CLOCK TIME=          6.6 SECONDS, CPU UTILIZATION IS    77.57%
  $VIB   
          IVIB=   0 IATOM=   0 ICOORD=   0 E=     -329.8642182655
 -8.979066952E-05 3.980145535E-04 4.569962301E-04 3.732893380E-05-3.686178819E-06
 -1.187321268E-04-4.646494534E-05-6.097126286E-05 3.801180094E-06 2.687336392E-04
  1.581906714E-04 1.156771194E-04-1.225395361E-04 3.432848317E-05-6.731237032E-05
 -1.085011919E-05 8.440311645E-05-6.632923412E-05 6.004506007E-05 4.437093896E-05
  5.999026779E-05 1.273284144E-04-5.284365257E-05 7.932101422E-05-3.450796185E-06
 -1.441112031E-04 2.003586143E-04-1.235845781E-05 1.584404933E-04-1.361940165E-04
 -8.416780981E-05-6.553751338E-05 2.786155831E-05 2.179940547E-05-1.050402083E-04
 -2.166662926E-04-9.042136498E-05 5.326170242E-06 1.183358204E-04 8.532832019E-05
 -3.987227562E-05-1.412821158E-04-1.265617881E-04 7.814239036E-05 9.364774459E-05
  2.585350214E-04 1.097337492E-04-1.212637170E-04-3.292673127E-05-8.451776398E-06
  2.581174228E-05-2.284847315E-04-1.935259619E-04 4.120850338E-05-2.018252692E-05
  1.171514434E-06-3.265169479E-05 2.670387581E-04-1.191057597E-04 1.272021286E-04
 -1.855681521E-04 2.473155385E-05 9.639512333E-05 5.311736860E-04-3.990360965E-04
 -2.715364556E-04-3.284620703E-04 2.670968467E-04 1.931711002E-05 4.014835122E-06
  1.135785552E-04-1.485734495E-04 4.909556859E-05-4.845815200E-05-2.513197523E-05
  2.661011878E-04 3.185360128E-04 4.214122142E-05-9.057092468E-05 2.112020497E-05
 -2.040529845E-05 1.542276888E-04 7.325218446E-05-8.381550656E-05-1.221560861E-04
 -2.155089175E-04 1.959971704E-04 2.764903982E-05 3.458531152E-05 1.870358357E-05
  5.499954062E-05-1.921404622E-05-2.788632728E-06 1.383050108E-04-1.089003240E-04
 -5.147428067E-07-8.031637254E-05-4.600347240E-04-4.934861852E-04-4.261617737E-04
  5.216400416E-04 2.355372564E-04-9.322740301E-05 2.198056160E-04-4.571833246E-05
 -1.322868825E-05-2.886355596E-04-1.158673465E-05 5.533642008E-05 4.219687181E-05
 -3.446314002E-05-7.494366771E-06 1.011689047E-04-9.107084341E-05-1.731344726E-04
  2.497711421E-04-1.865954959E-04 4.230320090E-04-4.851165734E-04 2.111103602E-04
  1.824821597E-04 1.837812616E-05 1.138642060E-04-4.372236141E-04 3.008201274E-04
 -2.420887488E-04 1.756280795E-04 3.704757284E-04 4.731441626E-04-9.414653024E-05
 -8.622809169E-05-1.713517621E-04-6.674083505E-05-2.306250569E-07-1.280943830E-05
 -5.702301932E-05-5.765258584E-05-1.625260550E-05 8.708950755E-05 4.783405628E-04
  1.597211128E-04-2.477632074E-04-3.644997888E-04-5.237842008E-05-2.226225772E-04
  3.086516024E-04-1.632806002E-06 3.319656109E-05 4.635173627E-05 1.055886286E-04
  5.554257809E-05-3.866343437E-04-2.744326381E-04 3.916136426E-04-3.266849562E-04
 -3.238983595E-05-1.319188328E-04 1.067672808E-05 1.452091962E-04 2.615128622E-04
 -5.566369457E-05-1.666431636E-04-4.582094911E-04 1.937319009E-04 2.561362351E-04
 -1.972910967E-04-6.584679047E-05-8.741412551E-05-8.887250957E-05-7.717919025E-06
 -1.767731896E-05 1.515322786E-04-9.738178108E-06-5.881342923E-05 1.631847446E-04
  1.364494533E-04 4.020128843E-05 2.511788490E-05-1.155613029E-04-1.453486700E-04
 -6.420297626E-05 2.894923547E-05-1.224765531E-04 7.868674470E-05-2.589930284E-05
 -4.042321360E-05-2.744306166E-04-3.456938545E-04 8.075585773E-06 7.240391308E-05
 -1.923393394E-04-7.192313797E-05 2.082586250E-05 3.878339628E-05-5.800082379E-05
 -8.197404217E-07 2.234075768E-04 1.672164724E-04 3.206868634E-05-3.931426207E-05
  6.864898153E-05 2.992494373E-05-1.079412279E-04 1.715850741E-04 1.612454797E-04
 -1.596019460E-04-4.304320381E-05 1.203129165E-04 1.197084133E-04-8.334594624E-06
 -8.677680288E-05-8.514811744E-05 7.871910258E-05 9.996870937E-05-7.272042326E-05
 -6.538897485E-05-2.060340070E-04-9.528208786E-05 1.184666545E-04 2.516958027E-04
  2.773015866E-04-1.493971785E-04-1.427508689E-04-3.684050117E-04 3.474932545E-04
 -5.875938450E-05 1.752225344E-04-2.691447012E-04
  7.440853613E-04 7.810982301E-04-1.786738693E-03
 ......END OF GEOMETRY SEARCH......
 CPU     0: STEP CPU TIME=     0.05 TOTAL CPU TIME=          5.2 (      0.1 MIN)
 TOTAL WALL CLOCK TIME=          6.7 SECONDS, CPU UTILIZATION IS    77.72%
               1031624  WORDS OF DYNAMIC MEMORY USED
 EXECUTION OF GAMESS TERMINATED NORMALLY 21:11:32 27-MAY-2023    
 DDI: 263640 bytes (0.3 MB / 0 MWords) used by master data server.

 ----------------------------------------
 CPU timing information for all processes
 ========================================
 0: 3.656250 + 1.562500 = 5.218750
 1: 4.015625 + 0.828125 = 4.843750
 2: 2.062500 + 2.484375 = 4.546875
 3: 2.484375 + 2.781250 = 5.265625
 ----------------------------------------
           Disk usage (in bytes)       
 ========================================
 ----------------------------------------
            Local date and time          
 ========================================
27.05.2023 - 21:11:32,90                          
